My job run on
pauli12
Start Date
Tue Feb 17 12:04:03 EST 2026
Module list

Currently Loaded Modules:
  1) gcc/12.2.0      5) fftw/3.3.10           9) eigen3/3.4.0
  2) openmpi/4.1.5   6) nfft/3.5.3           10) cmake/4.0.1
  3) hdf5/1.10.8     7) openblas/0.3.21-omp  11) BuildEnv/gcc-12.2.0
  4) boost/1.81.0    8) python/3.10.10

 

#INFO: **** input file is /home/munkhw/lib/green/python/init_data_df.py ****
import logging
import green_mbtools.mint as pymb


def main():
    logging.basicConfig(level=logging.DEBUG)

    pyscf_init = pymb.pyscf_pbc_init()

    if "init" in pyscf_init.args.job:
        pyscf_init.mean_field_input()
    if "sym_path" in pyscf_init.args.job:
        pyscf_init.evaluate_high_symmetry_path()
    if "ewald_corr" in pyscf_init.args.job:
        pyscf_init.compute_twobody_finitesize_correction()

    print("Done")


if __name__ == "__main__":
    main()
#INFO: ******************** input file end ********************


System: uname_result(system='Linux', node='pauli12', release='5.4.234-1.el8.elrepo.x86_64', version='#1 SMP Thu Mar 2 15:14:31 EST 2023', machine='x86_64')  Threads 64
Python 3.10.10 (main, Mar  9 2023, 13:49:08) [GCC 12.2.0]
numpy 1.23.5  scipy 1.10.1  h5py 3.8.0
Date: Tue Feb 17 12:04:06 2026
PySCF version 2.8.0
PySCF path  /home/munkhw/.local/lib/python3.10/site-packages/pyscf

[ENV] PYSCF_MAX_MEMORY 600000
[CONFIG] ARGPARSE = False
[CONFIG] DEBUG = False
[CONFIG] MAX_MEMORY = 600000
[CONFIG] TMPDIR = /tmp
[CONFIG] UNIT = angstrom
[CONFIG] VERBOSE = 3
[CONFIG] conf_file = None
[INPUT] verbose = 7
[INPUT] max_memory = 600000 
[INPUT] num. atoms = 2
[INPUT] num. electrons = 78
[INPUT] charge = 0
[INPUT] spin (= nelec alpha-beta = 2S) = 0
[INPUT] symmetry False subgroup None
[INPUT] Mole.unit = A
[INPUT] Symbol           X                Y                Z      unit          X                Y                Z       unit  Magmom
[INPUT]  1 Sm     0.000000000000   0.000000000000   0.000000000000 AA    0.000000000000   0.000000000000   0.000000000000 Bohr   0.0
[INPUT]  2 S      2.985000000000   2.985000000000   2.985000000000 AA    5.640832481827   5.640832481827   5.640832481827 Bohr   0.0
[INPUT] ---------------- BASIS SET ---------------- 
[INPUT] l, kappa, [nprim/nctr], expnt,             c_1 c_2 ...
[INPUT] S
[INPUT] 0    0    [10   /4   ]  10081.365929      0.0067330718484    0    0    0
                                1468.8676987      0.042320127671    0    0    0
                                327.24650166      0.18668353433    0    0    0
                                90.528520114      0.48498026875    0    0    0
                                46.385398836         0 -0.095058943449    0    0
                                27.505830828      0.45173764288    0    0    0
                                5.0228188449         0 0.58437019064    0    0
                                2.0306206045         0 0.54139094274    0    0
                                0.36066278823        0    0    1    0
                                0.13714107288        0    0    0    1
[INPUT] 1    0    [7    /3   ]  270.95043064      0.0092081512669    0    0
                                62.537785317      0.065313141297    0    0
                                19.35461422       0.24454706008    0    0
                                6.7163477485      0.48207838519    0    0
                                2.4098646724      0.39174777851    0    0
                                0.61915094784        0    1    0
                                0.17014575483        0    0    1
[INPUT] 2    0    [1    /1   ]  0.55                 1
[INPUT] Sm
[INPUT] 0    0    [23   /7   ]  7954257.0181      0.0015233008835    0    0    0    0    0    0
                                937862.37863      0.004978626911    0    0    0    0    0    0
                                170727.27592      0.01439232446    0    0    0    0    0    0
                                39630.966188      0.040414638509    0    0    0    0    0    0
                                10888.452218      0.10865596109    0    0    0    0    0    0
                                3405.358266       0.25465511516    0    0    0    0    0    0
                                2914.4544342         0 -0.020887313181    0    0    0    0    0
                                1161.1269444      0.43997817565    0    0    0    0    0    0
                                808.30364889         0 -0.097105079302    0    0    0    0    0
                                409.34498046      0.31694302926    0    0    0    0    0    0
                                130.31764347         0 0.53313602223    0    0    0    0    0
                                91.212893718         0    0 -0.30148240483    0    0    0    0
                                55.157306289         0 0.60327475637    0    0    0    0    0
                                16.558768274         0    0 0.96284843482    0    0    0    0
                                14.898865996         0    0    0 -0.41753643417    0    0    0
                                7.7380087651         0    0 0.33280889326    0    0    0    0
                                4.0964555153         0    0    0 0.75271484088    0    0    0
                                2.9013524952         0    0    0    0 -0.30949937484    0    0
                                2.1179628124         0    0    0 0.61072690992    0    0    0
                                0.65220106116        0    0    0    0 0.71307926592    0    0
                                0.31447669758        0    0    0    0 0.52277119408    0    0
                                0.055490481306       0    0    0    0    0    1    0
                                0.025838710123       0    0    0    0    0    0    1
[INPUT] 1    0    [18   /6   ]  56371.448178      0.0011349549404    0    0    0    0    0
                                9549.1042649      0.006392018641    0    0    0    0    0
                                2534.5774115      0.029560273842    0    0    0    0    0
                                847.18022096      0.11074788397    0    0    0    0    0
                                325.55961003      0.29323371759    0    0    0    0    0
                                241.16108113         0 -0.021364907818    0    0    0    0
                                134.29596767      0.46737414817    0    0    0    0    0
                                56.073875971      0.27108148582    0    0    0    0    0
                                39.203327555         0 0.3223673977    0    0    0    0
                                27.220480002         0    0 -0.055200935107    0    0    0
                                19.24409235          0 0.59532535865    0    0    0    0
                                9.2203816701         0 0.2825874649    0    0    0    0
                                5.2022037189         0    0 0.674199107    0    0    0
                                4.5710755832         0    0    0 -0.11315626585    0    0
                                2.1953294084         0    0 0.50825107695    0    0    0
                                0.72213313666        0    0    0 0.69820390625    0    0
                                0.26572287112        0    0    0    0    1    0
                                0.059                0    0    0    0    0    1
[INPUT] 2    0    [13   /6   ]  896.46294769      0.0075096016758    0    0    0    0    0
                                258.93409633      0.055320126392    0    0    0    0    0
                                96.235563876      0.21470295753    0    0    0    0    0
                                39.9395533        0.44821397062    0    0    0    0    0
                                16.370834855      0.60616158782    0    0    0    0    0
                                13.675634012         0 -0.26533925812    0    0    0    0
                                5.9786221793         0    0 -0.081520214519    0    0    0
                                4.234676249          0 -0.26758834032    0    0    0    0
                                2.3147096629         0    0 -0.065381885342    0    0    0
                                1.9851436624         0 -0.19825453097    0    0    0    0
                                0.75262616314        0    0    0    1    0    0
                                0.19233009598        0    0    0    0    1    0
                                0.0491               0    0    0    0    0    1
[INPUT] 3    0    [7    /3   ]  63.797783845      0.012033504675    0    0
                                21.522874805      0.052946341845    0    0
                                9.0439476956      0.11641926433    0    0
                                4.1005221873      0.16005837003    0    0
                                1.8657640598      0.15448285255    0    0
                                0.80488420886        0    1    0
                                0.30294690412        0    0    1
[INPUT] 4    0    [1    /1   ]  0.4638               1

mesh for ewald [13 13 13]
Ewald components = 2.99258737489999, -1056.89860283308, 124.966687135128
nuclear repulsion = -928.939328323055
number of shells = 8
number of NR pGTOs = 236
number of NR cGTOs = 103
basis = /pauli-storage/munkhw/SmS/basis/x2csvpall.dat
ecp = {}
bas 0, expnt(s) = [7.95425702e+06 9.37862379e+05 1.70727276e+05 3.96309662e+04
 1.08884522e+04 3.40535827e+03 2.91445443e+03 1.16112694e+03
 8.08303649e+02 4.09344980e+02 1.30317643e+02 9.12128937e+01
 5.51573063e+01 1.65587683e+01 1.48988660e+01 7.73800877e+00
 4.09645552e+00 2.90135250e+00 2.11796281e+00 6.52201061e-01
 3.14476698e-01 5.54904813e-02 2.58387101e-02]
bas 1, expnt(s) = [5.63714482e+04 9.54910426e+03 2.53457741e+03 8.47180221e+02
 3.25559610e+02 2.41161081e+02 1.34295968e+02 5.60738760e+01
 3.92033276e+01 2.72204800e+01 1.92440923e+01 9.22038167e+00
 5.20220372e+00 4.57107558e+00 2.19532941e+00 7.22133137e-01
 2.65722871e-01 5.90000000e-02]
bas 2, expnt(s) = [8.96462948e+02 2.58934096e+02 9.62355639e+01 3.99395533e+01
 1.63708349e+01 1.36756340e+01 5.97862218e+00 4.23467625e+00
 2.31470966e+00 1.98514366e+00 7.52626163e-01 1.92330096e-01
 4.91000000e-02]
bas 3, expnt(s) = [63.79778384 21.52287481  9.0439477   4.10052219  1.86576406  0.80488421
  0.3029469 ]
bas 4, expnt(s) = [0.4638]
bas 5, expnt(s) = [1.00813659e+04 1.46886770e+03 3.27246502e+02 9.05285201e+01
 4.63853988e+01 2.75058308e+01 5.02281884e+00 2.03062060e+00
 3.60662788e-01 1.37141073e-01]
bas 6, expnt(s) = [2.70950431e+02 6.25377853e+01 1.93546142e+01 6.71634775e+00
 2.40986467e+00 6.19150948e-01 1.70145755e-01]
bas 7, expnt(s) = [0.55]
CPU time:         3.32
lattice vectors  a1 [0.000000000, 5.640832482, 5.640832482]
                 a2 [5.640832482, 0.000000000, 5.640832482]
                 a3 [5.640832482, 5.640832482, 0.000000000]
dimension = 3
low_dim_ft_type = None
Cell volume = 358.971
rcut = 41.83434732705703 (nimgs = [7 7 7])
lattice sum = 2633 cells
precision = 1e-08
pseudo = None
ke_cutoff = 579021750.7900394
    = [86413 86413 86413] mesh (645263721246997 PWs)
ETB for S: l = 0, exps = 0.27428214576 * 2^n , n = 0..16
ETB for S: l = 1, exps = 0.30550922318885 * 2^n , n = 0..13
ETB for S: l = 2, exps = 0.34029150966 * 2^n , n = 0..10
ETB for S: l = 3, exps = 0.6118175059819717 * 2^n , n = 0..5
ETB for S: l = 4, exps = 1.1 * 2^n , n = 0..0
ETB for Sm: l = 0, exps = 0.051677420246 * 2^n , n = 0..28
ETB for Sm: l = 1, exps = 0.07808927960372025 * 2^n , n = 0..24
ETB for Sm: l = 2, exps = 0.07123708772933661 * 2^n , n = 0..21
ETB for Sm: l = 3, exps = 0.10764571519572899 * 2^n , n = 0..18
ETB for Sm: l = 4, exps = 0.0982 * 2^n , n = 0..15
ETB for Sm: l = 5, exps = 0.24392370112223208 * 2^n , n = 0..10
ETB for Sm: l = 6, exps = 0.30181172939433615 * 2^n , n = 0..8
ETB for Sm: l = 7, exps = 0.7496846647247255 * 2^n , n = 0..3
ETB for Sm: l = 8, exps = 0.9276 * 2^n , n = 0..0

WARN: Even tempered Gaussians are generated as DF auxbasis for  S Sm

  ETB auxbasis for S  [[0, [17975.35470452736, 1]], [0, [8987.67735226368, 1]], [0, [4493.83867613184, 1]], [0, [2246.91933806592, 1]], [0, [1123.45966903296, 1]], [0, [561.72983451648, 1]], [0, [280.86491725824, 1]], [0, [140.43245862912, 1]], [0, [70.21622931456, 1]], [0, [35.10811465728, 1]], [0, [17.55405732864, 1]], [0, [8.77702866432, 1]], [0, [4.38851433216, 1]], [0, [2.19425716608, 1]], [0, [1.09712858304, 1]], [0, [0.54856429152, 1]], [0, [0.27428214576, 1]], [1, [2502.731556363059, 1]], [1, [1251.3657781815295, 1]], [1, [625.6828890907648, 1]], [1, [312.8414445453824, 1]], [1, [156.4207222726912, 1]], [1, [78.2103611363456, 1]], [1, [39.1051805681728, 1]], [1, [19.5525902840864, 1]], [1, [9.7762951420432, 1]], [1, [4.8881475710216, 1]], [1, [2.4440737855108, 1]], [1, [1.2220368927554, 1]], [1, [0.6110184463777, 1]], [1, [0.30550922318885, 1]], [2, [348.45850589184, 1]], [2, [174.22925294592, 1]], [2, [87.11462647296, 1]], [2, [43.55731323648, 1]], [2, [21.77865661824, 1]], [2, [10.88932830912, 1]], [2, [5.44466415456, 1]], [2, [2.72233207728, 1]], [2, [1.36116603864, 1]], [2, [0.68058301932, 1]], [2, [0.34029150966, 1]], [3, [19.578160191423095, 1]], [3, [9.789080095711547, 1]], [3, [4.894540047855774, 1]], [3, [2.447270023927887, 1]], [3, [1.2236350119639434, 1]], [3, [0.6118175059819717, 1]], [4, [1.1, 1]]]
  ETB auxbasis for Sm  [[0, [13872051.868638642, 1]], [0, [6936025.934319321, 1]], [0, [3468012.9671596605, 1]], [0, [1734006.4835798303, 1]], [0, [867003.2417899151, 1]], [0, [433501.62089495757, 1]], [0, [216750.81044747878, 1]], [0, [108375.40522373939, 1]], [0, [54187.702611869696, 1]], [0, [27093.851305934848, 1]], [0, [13546.925652967424, 1]], [0, [6773.462826483712, 1]], [0, [3386.731413241856, 1]], [0, [1693.365706620928, 1]], [0, [846.682853310464, 1]], [0, [423.341426655232, 1]], [0, [211.670713327616, 1]], [0, [105.835356663808, 1]], [0, [52.917678331904, 1]], [0, [26.458839165952, 1]], [0, [13.229419582976, 1]], [0, [6.614709791488, 1]], [0, [3.307354895744, 1]], [0, [1.653677447872, 1]], [0, [0.826838723936, 1]], [0, [0.413419361968, 1]], [0, [0.206709680984, 1]], [0, [0.103354840492, 1]], [0, [0.051677420246, 1]], [1, [1310120.711196009, 1]], [1, [655060.3555980045, 1]], [1, [327530.17779900227, 1]], [1, [163765.08889950113, 1]], [1, [81882.54444975057, 1]], [1, [40941.27222487528, 1]], [1, [20470.63611243764, 1]], [1, [10235.31805621882, 1]], [1, [5117.65902810941, 1]], [1, [2558.829514054705, 1]], [1, [1279.4147570273526, 1]], [1, [639.7073785136763, 1]], [1, [319.85368925683815, 1]], [1, [159.92684462841908, 1]], [1, [79.96342231420954, 1]], [1, [39.98171115710477, 1]], [1, [19.990855578552384, 1]], [1, [9.995427789276192, 1]], [1, [4.997713894638096, 1]], [1, [2.498856947319048, 1]], [1, [1.249428473659524, 1]], [1, [0.624714236829762, 1]], [1, [0.312357118414881, 1]], [1, [0.1561785592074405, 1]], [1, [0.07808927960372025, 1]], [2, [149395.00100575373, 1]], [2, [74697.50050287686, 1]], [2, [37348.75025143843, 1]], [2, [18674.375125719216, 1]], [2, [9337.187562859608, 1]], [2, [4668.593781429804, 1]], [2, [2334.296890714902, 1]], [2, [1167.148445357451, 1]], [2, [583.5742226787255, 1]], [2, [291.78711133936275, 1]], [2, [145.89355566968138, 1]], [2, [72.94677783484069, 1]], [2, [36.473388917420344, 1]], [2, [18.236694458710172, 1]], [2, [9.118347229355086, 1]], [2, [4.559173614677543, 1]], [2, [2.2795868073387715, 1]], [2, [1.1397934036693858, 1]], [2, [0.5698967018346929, 1]], [2, [0.28494835091734644, 1]], [2, [0.14247417545867322, 1]], [2, [0.07123708772933661, 1]], [3, [28218.67836426918, 1]], [3, [14109.33918213459, 1]], [3, [7054.669591067295, 1]], [3, [3527.3347955336476, 1]], [3, [1763.6673977668238, 1]], [3, [881.8336988834119, 1]], [3, [440.91684944170595, 1]], [3, [220.45842472085297, 1]], [3, [110.22921236042649, 1]], [3, [55.114606180213244, 1]], [3, [27.557303090106622, 1]], [3, [13.778651545053311, 1]], [3, [6.8893257725266555, 1]], [3, [3.4446628862633277, 1]], [3, [1.7223314431316639, 1]], [3, [0.8611657215658319, 1]], [3, [0.43058286078291597, 1]], [3, [0.21529143039145798, 1]], [3, [0.10764571519572899, 1]], [4, [3217.8176, 1]], [4, [1608.9088, 1]], [4, [804.4544, 1]], [4, [402.2272, 1]], [4, [201.1136, 1]], [4, [100.5568, 1]], [4, [50.2784, 1]], [4, [25.1392, 1]], [4, [12.5696, 1]], [4, [6.2848, 1]], [4, [3.1424, 1]], [4, [1.5712, 1]], [4, [0.7856, 1]], [4, [0.3928, 1]], [4, [0.1964, 1]], [4, [0.0982, 1]], [5, [249.77786994916565, 1]], [5, [124.88893497458282, 1]], [5, [62.44446748729141, 1]], [5, [31.222233743645706, 1]], [5, [15.611116871822853, 1]], [5, [7.8055584359114265, 1]], [5, [3.9027792179557133, 1]], [5, [1.9513896089778566, 1]], [5, [0.9756948044889283, 1]], [5, [0.48784740224446416, 1]], [5, [0.24392370112223208, 1]], [6, [77.26380272495005, 1]], [6, [38.63190136247503, 1]], [6, [19.315950681237513, 1]], [6, [9.657975340618757, 1]], [6, [4.828987670309378, 1]], [6, [2.414493835154689, 1]], [6, [1.2072469175773446, 1]], [6, [0.6036234587886723, 1]], [6, [0.30181172939433615, 1]], [7, [5.997477317797804, 1]], [7, [2.998738658898902, 1]], [7, [1.499369329449451, 1]], [7, [0.7496846647247255, 1]], [8, [0.9276, 1]]]
num shells = 185, num cGTOs = 971


******** <class 'pyscf.pbc.x2c.x2c1e.X2C1eKGKS'> ********
method = X2C1eKGKS
initial guess = minao
damping factor = 0.2
level_shift factor = 0
DIIS = <class 'pyscf.scf.diis.CDIIS'>
diis_start_cycle = 1
diis_space = 16
diis_damp = 0
SCF conv_tol = 1e-06
SCF conv_tol_grad = None
SCF max_cycles = 10
direct_scf = True
direct_scf_tol = 1e-13
chkfile to save SCF result = tmp.chk
max_memory 600000 MB (current use 175 MB)


******** PBC SCF flags ********
N kpts = 8
kpts = [[ 0.          0.          0.        ]
 [ 0.27846888  0.27846888 -0.27846888]
 [ 0.27846888 -0.27846888  0.27846888]
 [ 0.55693777  0.          0.        ]
 [-0.27846888  0.27846888  0.27846888]
 [ 0.          0.55693777  0.        ]
 [ 0.          0.          0.55693777]
 [ 0.27846888  0.27846888  0.27846888]]
Exchange divergence treatment (exxdiv) = ewald
mesh for ewald [15 15 15]
Ewald components = 8.1509248673459e-10, -0.157421337783107, 0.0558214824942946
    madelung (= occupied orbital energy shift) = 0.20319970894743913
    Total energy shift due to Ewald probe charge = -1/2 * Nelec*madelung = -7.92478864895
DF object = <pyscf.pbc.df.df.GDF object at 0x4b64ea0>
XC functionals = PBE
small_rho_cutoff = 1e-07
radial grids: 
    Treutler-Ahlrichs [JCP 102, 346 (1995); DOI:10.1063/1.469408] (M4) radial grids
    
becke partition: Becke, JCP 88, 2547 (1988); DOI:10.1063/1.454033
pruning grids: <function nwchem_prune at 0x46d70c0>
grids dens level: 3
symmetrized grids: False
atomic radii adjust function: <function treutler_atomic_radii_adjust at 0x46dc0c0>
atomic_radii : [3.77945036 0.66140414 2.64561657 2.74010288 1.98421243 1.60626721
 1.32280829 1.22832198 1.13383567 0.94486306 2.83458919 3.40150702
 2.83458919 2.36215766 2.07869874 1.88972612 1.88972612 1.88972612
 3.40150702 4.15739747 3.40150702 3.0235618  2.64561657 2.55113027
 2.64561657 2.64561657 2.64561657 2.55113027 2.55113027 2.55113027
 2.55113027 2.45664396 2.36215766 2.17318504 2.17318504 2.17318504
 3.59047964 4.44085639 3.77945225 3.40150702 2.92907549 2.74010288
 2.74010288 2.55113027 2.45664396 2.55113027 2.64561657 3.0235618
 2.92907549 2.92907549 2.74010288 2.74010288 2.64561657 2.64561657
 3.96842486 4.91328792 4.06291117 3.68496594 3.49599333 3.49599333
 3.49599333 3.49599333 3.49599333 3.49599333 3.40150702 3.30702072
 3.30702072 3.30702072 3.30702072 3.30702072 3.30702072 3.30702072
 2.92907549 2.74010288 2.55113027 2.55113027 2.45664396 2.55113027
 2.55113027 2.55113027 2.83458919 3.59047964 3.40150702 3.0235618
 3.59047964 2.74010288 3.96842486 3.40150702 4.06291117 3.68496594
 3.40150702 3.40150702 3.30702072 3.30702072 3.30702072 3.30702072
 3.30702072 3.30702072 3.30702072 3.30702072 3.30702072 3.30702072
 3.30702072 3.30702072 3.30702072 3.30702072 3.30702072 3.30702072
 3.30702072 3.30702072 3.30702072 3.30702072 3.30702072 3.30702072
 3.30702072 3.30702072 3.30702072 3.30702072 3.30702072 3.30702072
 3.30702072 3.30702072 3.30702072 3.30702072 3.30702072 3.30702072
 3.30702072 3.30702072 3.30702072 3.30702072 3.30702072]


******** <class 'pyscf.pbc.x2c.x2c1e.SpinOrbitalX2C1EHelper'> ********
approx = 1e
xuncontract = 1
Set gradient conv threshold to 0.001
Big error detected in the electron number of initial guess density matrix (Ne/cell = 78.3576)!
  This can cause huge error in Fock matrix and lead to instability in SCF for low-dimensional systems.
  DM is normalized wrt the number of electrons 78.0
get_pnucp eta = 0.19937382880067556 mesh = [15 15 15]
kmesh for bvk-cell = [2 2 2]


******** <class 'pyscf.pbc.df.gdf_builder._CCNucBuilder'> ********
mesh = [19 19 19] (6859 PWs)
ke_cutoff = 25.12455389539195
eta = 0.33176458841734224
j2c_eig_always = False
bas 0 rcut [0.0006599]  kecut [9.85366172e+08]
steep [0], [7954257.0181]
local [], []
smooth [], []
bas 1 rcut [0.00232294]  kecut [1.12274661e+08]
steep [0], [937862.37863]
local [], []
smooth [], []
bas 2 rcut [0.00609791]  kecut [19872395.79976062]
steep [0], [170727.27592]
local [], []
smooth [], []
bas 3 rcut [0.01371516]  kecut [4500497.8564561]
steep [0], [39630.966188]
local [], []
smooth [], []
bas 4 rcut [0.02783122]  kecut [1209187.76700365]
steep [0], [10888.452218]
local [], []
smooth [], []
bas 5 rcut [0.05230072]  kecut [370497.98444221]
steep [0], [3405.358266]
local [], []
smooth [], []
bas 6 rcut [0.05689098]  kecut [316209.24573222]
steep [0], [2914.4544342]
local [], []
smooth [], []
bas 7 rcut [0.09340522]  kecut [123909.18857643]
steep [0], [1161.1269444]
local [], []
smooth [], []
bas 8 rcut [0.11345634]  kecut [85691.17077696]
steep [0], [808.30364889]
local [], []
smooth [], []
bas 9 rcut [0.16333239]  kecut [42857.42292442]
steep [0], [409.34498046]
local [], []
smooth [], []
bas 10 rcut [0.30075166]  kecut [13355.73271712]
steep [0], [130.31764347]
local [], []
smooth [], []
bas 11 rcut [0.36358351]  kecut [9285.22151461]
steep [0], [91.21289372]
local [], []
smooth [], []
bas 12 rcut [0.47488269]  kecut [5561.33192558]
steep [0], [55.15730629]
local [], []
smooth [], []
bas 13 rcut [0.89789936]  kecut [1631.16806931]
steep [0], [16.55876827]
local [], []
smooth [], []
bas 14 rcut [0.94942873]  kecut [1464.62453542]
steep [0], [14.898866]
local [], []
smooth [], []
bas 15 rcut [1.34153323]  kecut [750.92509416]
steep [], []
local [0], [7.73800877]
smooth [], []
bas 16 rcut [1.87540245]  kecut [392.52641652]
steep [], []
local [0], [4.09645552]
smooth [], []
bas 17 rcut [2.24853396]  kecut [276.08795961]
steep [], []
local [0], [2.9013525]
smooth [], []
bas 18 rcut [2.65301407]  kecut [200.2621238]
steep [], []
local [0], [2.11796281]
smooth [], []
bas 19 rcut [4.92179219]  kecut [60.19533478]
steep [], []
local [0], [0.65220106]
smooth [], []
bas 20 rcut [7.21073035]  kecut [28.58576785]
steep [], []
local [0], [0.3144767]
smooth [], []
bas 21 rcut [17.84165535]  kecut [4.86027674]
steep [], []
local [], []
smooth [0], [0.05549048]
bas 22 rcut [26.57084453]  kecut [2.22555104]
steep [], []
local [], []
smooth [0], [0.02583871]
bas 23 rcut [0.01314549]  kecut [7684555.69482637]
steep [0], [56371.448178]
local [], []
smooth [], []
bas 24 rcut [0.03402474]  kecut [1267824.70887418]
steep [0], [9549.1042649]
local [], []
smooth [], []
bas 25 rcut [0.06891098]  kecut [329789.39412435]
steep [0], [2534.5774115]
local [], []
smooth [], []
bas 26 rcut [0.12314151]  kecut [108375.01180858]
steep [0], [847.18022096]
local [], []
smooth [], []
bas 27 rcut [0.20403931]  kecut [41024.30456814]
steep [0], [325.55961003]
local [], []
smooth [], []
bas 28 rcut [0.239002]  kecut [30244.3709746]
steep [0], [241.16108113]
local [], []
smooth [], []
bas 29 rcut [0.32526813]  kecut [16685.01883556]
steep [0], [134.29596767]
local [], []
smooth [], []
bas 30 rcut [0.51468651]  kecut [6868.70785588]
steep [0], [56.07387597]
local [], []
smooth [], []
bas 31 rcut [0.62100514]  kecut [4774.10615426]
steep [0], [39.20332756]
local [], []
smooth [], []
bas 32 rcut [0.75187813]  kecut [3294.99830011]
steep [0], [27.22048]
local [], []
smooth [], []
bas 33 rcut [0.9016408]  kecut [2316.12215669]
steep [0], [19.24409235]
local [], []
smooth [], []
bas 34 rcut [1.32503515]  kecut [1096.15027226]
steep [], []
local [0], [9.22038167]
smooth [], []
bas 35 rcut [1.78693424]  kecut [612.50084018]
steep [], []
local [0], [5.20220372]
smooth [], []
bas 36 rcut [1.91178377]  kecut [537.01022822]
steep [], []
local [0], [4.57107558]
smooth [], []
bas 37 rcut [2.8030428]  kecut [254.68724665]
steep [], []
local [0], [2.19532941]
smooth [], []
bas 38 rcut [5.00233976]  kecut [82.17114703]
steep [], []
local [0], [0.72213314]
smooth [], []
bas 39 rcut [8.41326726]  kecut [29.70514887]
steep [], []
local [0], [0.26572287]
smooth [], []
bas 40 rcut [18.37463752]  kecut [6.41802744]
steep [], []
local [], []
smooth [0], [0.059]
bas 41 rcut [0.12906956]  kecut [129330.53190897]
steep [0], [896.46294769]
local [], []
smooth [], []
bas 42 rcut [0.24717767]  kecut [36792.51826391]
steep [0], [258.93409633]
local [], []
smooth [], []
bas 43 rcut [0.41438517]  kecut [13506.42949305]
steep [0], [96.23556388]
local [], []
smooth [], []
bas 44 rcut [0.65529972]  kecut [5543.21125721]
steep [0], [39.9395533]
local [], []
smooth [], []
bas 45 rcut [1.04228101]  kecut [2246.13991737]
steep [], []
local [0], [16.37083485]
smooth [], []
bas 46 rcut [1.14445917]  kecut [1871.96221811]
steep [], []
local [0], [13.67563401]
smooth [], []
bas 47 rcut [1.75903891]  kecut [809.5329748]
steep [], []
local [0], [5.97862218]
smooth [], []
bas 48 rcut [2.10385803]  kecut [570.77876079]
steep [], []
local [0], [4.23467625]
smooth [], []
bas 49 rcut [2.87791858]  kecut [309.48347595]
steep [], []
local [0], [2.31470966]
smooth [], []
bas 50 rcut [3.11643904]  kecut [264.8715709]
steep [], []
local [0], [1.98514366]
smooth [], []
bas 51 rcut [5.15056369]  kecut [99.10597957]
steep [], []
local [0], [0.75262616]
smooth [], []
bas 52 rcut [10.43149472]  kecut [24.8515501]
steep [], []
local [], []
smooth [0], [0.1923301]
bas 53 rcut [21.11430987]  kecut [6.22259293]
steep [], []
local [], []
smooth [0], [0.0491]
bas 54 rcut [0.54211934]  kecut [9807.98418292]
steep [0], [63.79778384]
local [], []
smooth [], []
bas 55 rcut [0.95148787]  kecut [3280.63021376]
steep [0], [21.52287481]
local [], []
smooth [], []
bas 56 rcut [1.48968002]  kecut [1368.62155917]
steep [], []
local [0], [9.0439477]
smooth [], []
bas 57 rcut [2.24143742]  kecut [616.29777719]
steep [], []
local [0], [4.10052219]
smooth [], []
bas 58 rcut [3.3651384]  kecut [278.44826123]
steep [], []
local [0], [1.86576406]
smooth [], []
bas 59 rcut [5.19097252]  kecut [119.19105953]
steep [], []
local [0], [0.80488421]
smooth [], []
bas 60 rcut [8.58668625]  kecut [44.44479916]
steep [], []
local [0], [0.3029469]
smooth [], []
bas 61 rcut [7.14954899]  kecut [75.57429391]
steep [], []
local [0], [0.4638]
smooth [], []
bas 62 rcut [0.02902374]  kecut [1118052.7585]
steep [0], [10081.365929]
local [], []
smooth [], []
bas 63 rcut [0.08231269]  kecut [157418.17252338]
steep [0], [1468.8676987]
local [], []
smooth [], []
bas 64 rcut [0.18408824]  kecut [34120.29626113]
steep [0], [327.24650166]
local [], []
smooth [], []
bas 65 rcut [0.36504156]  kecut [9214.23828817]
steep [0], [90.52852011]
local [], []
smooth [], []
bas 66 rcut [0.52056563]  kecut [4661.39480693]
steep [0], [46.38539884]
local [], []
smooth [], []
bas 67 rcut [0.68657183]  kecut [2736.42746962]
steep [0], [27.50583083]
local [], []
smooth [], []
bas 68 rcut [1.68455713]  kecut [483.25938839]
steep [], []
local [0], [5.02281884]
smooth [], []
bas 69 rcut [2.71236587]  kecut [191.83942385]
steep [], []
local [0], [2.0306206]
smooth [], []
bas 70 rcut [6.71182994]  kecut [32.87860298]
steep [], []
local [0], [0.36066279]
smooth [], []
bas 71 rcut [11.12692876]  kecut [12.24854657]
steep [], []
local [], []
smooth [0], [0.13714107]
bas 72 rcut [0.22477523]  kecut [34043.41336359]
steep [0], [270.95043064]
local [], []
smooth [], []
bas 73 rcut [0.4860373]  kecut [7674.14319028]
steep [0], [62.53778532]
local [], []
smooth [], []
bas 74 rcut [0.89894114]  kecut [2329.64569031]
steep [0], [19.35461422]
local [], []
smooth [], []
bas 75 rcut [1.56370135]  kecut [794.20577557]
steep [], []
local [0], [6.71634775]
smooth [], []
bas 76 rcut [2.67001848]  kecut [280.02555897]
steep [], []
local [0], [2.40986467]
smooth [], []
bas 77 rcut [5.4193231]  kecut [70.26233268]
steep [], []
local [0], [0.61915095]
smooth [], []
bas 78 rcut [10.60563778]  kecut [18.86888552]
steep [], []
local [], []
smooth [0], [0.17014575]
bas 79 rcut [6.05841695]  kecut [72.11272886]
steep [], []
local [0], [0.55]
smooth [], []
rs_cell.nbas 80 nao 236
No. steep_bas in rs_cell 41
No. local_bas in rs_cell 32
No. smooth_bas in rs_cell 7
bas_map from cell to rs_cell [ 0  1  2  3  4  5  6  7  8  9 10 11 12 13 14 15 16 17 18 19 20 21 22 23
 24 25 26 27 28 29 30 31 32 33 34 35 36 37 38 39 40 41 42 43 44 45 46 47
 48 49 50 51 52 53 54 55 56 57 58 59 60 61 62 63 64 65 66 67 68 69 70 71
 72 73 74 75 76 77 78 79 80]
<class 'pyscf.pbc.df.ft_ao._RangeSeparatedCell'>.bas_type [0 0 0 0 0 0 0 0 0 0 0 0 0 0 0 1 1 1 1 1 1 2 2 0 0 0 0 0 0 0 0 0 0 0 1 1 1
 1 1 1 2 0 0 0 0 1 1 1 1 1 1 1 2 2 0 0 1 1 1 1 1 1 0 0 0 0 0 0 1 1 1 2 0 0
 0 1 1 1 2 1]
<class 'pyscf.pbc.df.ft_ao._RangeSeparatedCell'>.sh_loc [ 0  1  2  3  4  5  6  7  8  9 10 11 12 13 14 15 16 17 18 19 20 21 22 23
 24 25 26 27 28 29 30 31 32 33 34 35 36 37 38 39 40 41 42 43 44 45 46 47
 48 49 50 51 52 53 54 55 56 57 58 59 60 61 62 63 64 65 66 67 68 69 70 71
 72 73 74 75 76 77 78 79 80]
Generate supmol with rcut = 30.3517 nimgs = 795 bvk_ncells = 8
No. steep basis in sup-mol 260760
No. local basis in sup-mol 203520
No. diffused basis in sup-mol 44520
strip_basis 508800 to 1676 
No. steep basis in sup-mol 215
No. local basis in sup-mol 389
No. diffused basis in sup-mol 1072
sup-mol nbas = 1676 cGTO = 4654 pGTO = 4654
Set _CCNucBuilder.direct_scf_tol to 1.58359e-14
Generate supmol with rcut = 45.1914 nimgs = 1311 bvk_ncells = 8
No. steep basis in sup-mol 430008
No. local basis in sup-mol 335616
No. diffused basis in sup-mol 73416
strip_basis 839040 to 38438 
No. steep basis in sup-mol 18001
No. local basis in sup-mol 15257
No. diffused basis in sup-mol 5180
sup-mol-ft nbas = 38438 cGTO = 123464 pGTO = 123464
    CPU time for initializing supmol      2.19 sec, wall time      0.17 sec
Real space integrals int3c2e_pvp1 for Vnuc - Vloc
is_pbcintor = 0, intor = int3c2e_pvp1_sph
    CPU time for int3c kernel initialization      0.95 sec, wall time      0.17 sec
    CPU time for pbc integral int3c2e_pvp1_sph     15.73 sec, wall time      0.38 sec
    CPU time for pnucp pass1: analytic int     19.83 sec, wall time      0.73 sec
Set ft_ao cutoff to 1.76436e-11
    CPU time for ft_ao kernel initialization      2.82 sec, wall time      1.44 sec
max_memory = 599452.667904  Gblksize = 3375  ngrids = 3375
    CPU time for ft_ao intor GTO_ft_pdotp    404.59 sec, wall time    307.50 sec
    CPU time for contracting pnucp    420.02 sec, wall time    315.33 sec
kmesh for bvk-cell = [2 2 2]


******** <class 'pyscf.pbc.df.gdf_builder._CCNucBuilder'> ********
mesh = [19 19 19] (6859 PWs)
ke_cutoff = 25.12455389539195
eta = 0.33176458841734224
j2c_eig_always = False
bas 0 rcut [0.0006599]  kecut [9.85366172e+08]
steep [0], [7954257.0181]
local [], []
smooth [], []
bas 1 rcut [0.00232294]  kecut [1.12274661e+08]
steep [0], [937862.37863]
local [], []
smooth [], []
bas 2 rcut [0.00609791]  kecut [19872395.79976062]
steep [0], [170727.27592]
local [], []
smooth [], []
bas 3 rcut [0.01371516]  kecut [4500497.8564561]
steep [0], [39630.966188]
local [], []
smooth [], []
bas 4 rcut [0.02783122]  kecut [1209187.76700365]
steep [0], [10888.452218]
local [], []
smooth [], []
bas 5 rcut [0.05230072]  kecut [370497.98444221]
steep [0], [3405.358266]
local [], []
smooth [], []
bas 6 rcut [0.05689098]  kecut [316209.24573222]
steep [0], [2914.4544342]
local [], []
smooth [], []
bas 7 rcut [0.09340522]  kecut [123909.18857643]
steep [0], [1161.1269444]
local [], []
smooth [], []
bas 8 rcut [0.11345634]  kecut [85691.17077696]
steep [0], [808.30364889]
local [], []
smooth [], []
bas 9 rcut [0.16333239]  kecut [42857.42292442]
steep [0], [409.34498046]
local [], []
smooth [], []
bas 10 rcut [0.30075166]  kecut [13355.73271712]
steep [0], [130.31764347]
local [], []
smooth [], []
bas 11 rcut [0.36358351]  kecut [9285.22151461]
steep [0], [91.21289372]
local [], []
smooth [], []
bas 12 rcut [0.47488269]  kecut [5561.33192558]
steep [0], [55.15730629]
local [], []
smooth [], []
bas 13 rcut [0.89789936]  kecut [1631.16806931]
steep [0], [16.55876827]
local [], []
smooth [], []
bas 14 rcut [0.94942873]  kecut [1464.62453542]
steep [0], [14.898866]
local [], []
smooth [], []
bas 15 rcut [1.34153323]  kecut [750.92509416]
steep [], []
local [0], [7.73800877]
smooth [], []
bas 16 rcut [1.87540245]  kecut [392.52641652]
steep [], []
local [0], [4.09645552]
smooth [], []
bas 17 rcut [2.24853396]  kecut [276.08795961]
steep [], []
local [0], [2.9013525]
smooth [], []
bas 18 rcut [2.65301407]  kecut [200.2621238]
steep [], []
local [0], [2.11796281]
smooth [], []
bas 19 rcut [4.92179219]  kecut [60.19533478]
steep [], []
local [0], [0.65220106]
smooth [], []
bas 20 rcut [7.21073035]  kecut [28.58576785]
steep [], []
local [0], [0.3144767]
smooth [], []
bas 21 rcut [17.84165535]  kecut [4.86027674]
steep [], []
local [], []
smooth [0], [0.05549048]
bas 22 rcut [26.57084453]  kecut [2.22555104]
steep [], []
local [], []
smooth [0], [0.02583871]
bas 23 rcut [0.01314549]  kecut [7684555.69482637]
steep [0], [56371.448178]
local [], []
smooth [], []
bas 24 rcut [0.03402474]  kecut [1267824.70887418]
steep [0], [9549.1042649]
local [], []
smooth [], []
bas 25 rcut [0.06891098]  kecut [329789.39412435]
steep [0], [2534.5774115]
local [], []
smooth [], []
bas 26 rcut [0.12314151]  kecut [108375.01180858]
steep [0], [847.18022096]
local [], []
smooth [], []
bas 27 rcut [0.20403931]  kecut [41024.30456814]
steep [0], [325.55961003]
local [], []
smooth [], []
bas 28 rcut [0.239002]  kecut [30244.3709746]
steep [0], [241.16108113]
local [], []
smooth [], []
bas 29 rcut [0.32526813]  kecut [16685.01883556]
steep [0], [134.29596767]
local [], []
smooth [], []
bas 30 rcut [0.51468651]  kecut [6868.70785588]
steep [0], [56.07387597]
local [], []
smooth [], []
bas 31 rcut [0.62100514]  kecut [4774.10615426]
steep [0], [39.20332756]
local [], []
smooth [], []
bas 32 rcut [0.75187813]  kecut [3294.99830011]
steep [0], [27.22048]
local [], []
smooth [], []
bas 33 rcut [0.9016408]  kecut [2316.12215669]
steep [0], [19.24409235]
local [], []
smooth [], []
bas 34 rcut [1.32503515]  kecut [1096.15027226]
steep [], []
local [0], [9.22038167]
smooth [], []
bas 35 rcut [1.78693424]  kecut [612.50084018]
steep [], []
local [0], [5.20220372]
smooth [], []
bas 36 rcut [1.91178377]  kecut [537.01022822]
steep [], []
local [0], [4.57107558]
smooth [], []
bas 37 rcut [2.8030428]  kecut [254.68724665]
steep [], []
local [0], [2.19532941]
smooth [], []
bas 38 rcut [5.00233976]  kecut [82.17114703]
steep [], []
local [0], [0.72213314]
smooth [], []
bas 39 rcut [8.41326726]  kecut [29.70514887]
steep [], []
local [0], [0.26572287]
smooth [], []
bas 40 rcut [18.37463752]  kecut [6.41802744]
steep [], []
local [], []
smooth [0], [0.059]
bas 41 rcut [0.12906956]  kecut [129330.53190897]
steep [0], [896.46294769]
local [], []
smooth [], []
bas 42 rcut [0.24717767]  kecut [36792.51826391]
steep [0], [258.93409633]
local [], []
smooth [], []
bas 43 rcut [0.41438517]  kecut [13506.42949305]
steep [0], [96.23556388]
local [], []
smooth [], []
bas 44 rcut [0.65529972]  kecut [5543.21125721]
steep [0], [39.9395533]
local [], []
smooth [], []
bas 45 rcut [1.04228101]  kecut [2246.13991737]
steep [], []
local [0], [16.37083485]
smooth [], []
bas 46 rcut [1.14445917]  kecut [1871.96221811]
steep [], []
local [0], [13.67563401]
smooth [], []
bas 47 rcut [1.75903891]  kecut [809.5329748]
steep [], []
local [0], [5.97862218]
smooth [], []
bas 48 rcut [2.10385803]  kecut [570.77876079]
steep [], []
local [0], [4.23467625]
smooth [], []
bas 49 rcut [2.87791858]  kecut [309.48347595]
steep [], []
local [0], [2.31470966]
smooth [], []
bas 50 rcut [3.11643904]  kecut [264.8715709]
steep [], []
local [0], [1.98514366]
smooth [], []
bas 51 rcut [5.15056369]  kecut [99.10597957]
steep [], []
local [0], [0.75262616]
smooth [], []
bas 52 rcut [10.43149472]  kecut [24.8515501]
steep [], []
local [], []
smooth [0], [0.1923301]
bas 53 rcut [21.11430987]  kecut [6.22259293]
steep [], []
local [], []
smooth [0], [0.0491]
bas 54 rcut [0.54211934]  kecut [9807.98418292]
steep [0], [63.79778384]
local [], []
smooth [], []
bas 55 rcut [0.95148787]  kecut [3280.63021376]
steep [0], [21.52287481]
local [], []
smooth [], []
bas 56 rcut [1.48968002]  kecut [1368.62155917]
steep [], []
local [0], [9.0439477]
smooth [], []
bas 57 rcut [2.24143742]  kecut [616.29777719]
steep [], []
local [0], [4.10052219]
smooth [], []
bas 58 rcut [3.3651384]  kecut [278.44826123]
steep [], []
local [0], [1.86576406]
smooth [], []
bas 59 rcut [5.19097252]  kecut [119.19105953]
steep [], []
local [0], [0.80488421]
smooth [], []
bas 60 rcut [8.58668625]  kecut [44.44479916]
steep [], []
local [0], [0.3029469]
smooth [], []
bas 61 rcut [7.14954899]  kecut [75.57429391]
steep [], []
local [0], [0.4638]
smooth [], []
bas 62 rcut [0.02902374]  kecut [1118052.7585]
steep [0], [10081.365929]
local [], []
smooth [], []
bas 63 rcut [0.08231269]  kecut [157418.17252338]
steep [0], [1468.8676987]
local [], []
smooth [], []
bas 64 rcut [0.18408824]  kecut [34120.29626113]
steep [0], [327.24650166]
local [], []
smooth [], []
bas 65 rcut [0.36504156]  kecut [9214.23828817]
steep [0], [90.52852011]
local [], []
smooth [], []
bas 66 rcut [0.52056563]  kecut [4661.39480693]
steep [0], [46.38539884]
local [], []
smooth [], []
bas 67 rcut [0.68657183]  kecut [2736.42746962]
steep [0], [27.50583083]
local [], []
smooth [], []
bas 68 rcut [1.68455713]  kecut [483.25938839]
steep [], []
local [0], [5.02281884]
smooth [], []
bas 69 rcut [2.71236587]  kecut [191.83942385]
steep [], []
local [0], [2.0306206]
smooth [], []
bas 70 rcut [6.71182994]  kecut [32.87860298]
steep [], []
local [0], [0.36066279]
smooth [], []
bas 71 rcut [11.12692876]  kecut [12.24854657]
steep [], []
local [], []
smooth [0], [0.13714107]
bas 72 rcut [0.22477523]  kecut [34043.41336359]
steep [0], [270.95043064]
local [], []
smooth [], []
bas 73 rcut [0.4860373]  kecut [7674.14319028]
steep [0], [62.53778532]
local [], []
smooth [], []
bas 74 rcut [0.89894114]  kecut [2329.64569031]
steep [0], [19.35461422]
local [], []
smooth [], []
bas 75 rcut [1.56370135]  kecut [794.20577557]
steep [], []
local [0], [6.71634775]
smooth [], []
bas 76 rcut [2.67001848]  kecut [280.02555897]
steep [], []
local [0], [2.40986467]
smooth [], []
bas 77 rcut [5.4193231]  kecut [70.26233268]
steep [], []
local [0], [0.61915095]
smooth [], []
bas 78 rcut [10.60563778]  kecut [18.86888552]
steep [], []
local [], []
smooth [0], [0.17014575]
bas 79 rcut [6.05841695]  kecut [72.11272886]
steep [], []
local [0], [0.55]
smooth [], []
rs_cell.nbas 80 nao 236
No. steep_bas in rs_cell 41
No. local_bas in rs_cell 32
No. smooth_bas in rs_cell 7
bas_map from cell to rs_cell [ 0  1  2  3  4  5  6  7  8  9 10 11 12 13 14 15 16 17 18 19 20 21 22 23
 24 25 26 27 28 29 30 31 32 33 34 35 36 37 38 39 40 41 42 43 44 45 46 47
 48 49 50 51 52 53 54 55 56 57 58 59 60 61 62 63 64 65 66 67 68 69 70 71
 72 73 74 75 76 77 78 79 80]
<class 'pyscf.pbc.df.ft_ao._RangeSeparatedCell'>.bas_type [0 0 0 0 0 0 0 0 0 0 0 0 0 0 0 1 1 1 1 1 1 2 2 0 0 0 0 0 0 0 0 0 0 0 1 1 1
 1 1 1 2 0 0 0 0 1 1 1 1 1 1 1 2 2 0 0 1 1 1 1 1 1 0 0 0 0 0 0 1 1 1 2 0 0
 0 1 1 1 2 1]
<class 'pyscf.pbc.df.ft_ao._RangeSeparatedCell'>.sh_loc [ 0  1  2  3  4  5  6  7  8  9 10 11 12 13 14 15 16 17 18 19 20 21 22 23
 24 25 26 27 28 29 30 31 32 33 34 35 36 37 38 39 40 41 42 43 44 45 46 47
 48 49 50 51 52 53 54 55 56 57 58 59 60 61 62 63 64 65 66 67 68 69 70 71
 72 73 74 75 76 77 78 79 80]
Generate supmol with rcut = 30.3517 nimgs = 795 bvk_ncells = 8
No. steep basis in sup-mol 260760
No. local basis in sup-mol 203520
No. diffused basis in sup-mol 44520
strip_basis 508800 to 1676 
No. steep basis in sup-mol 215
No. local basis in sup-mol 389
No. diffused basis in sup-mol 1072
sup-mol nbas = 1676 cGTO = 4654 pGTO = 4654
Set _CCNucBuilder.direct_scf_tol to 1.58359e-14
Generate supmol with rcut = 45.1914 nimgs = 1311 bvk_ncells = 8
No. steep basis in sup-mol 430008
No. local basis in sup-mol 335616
No. diffused basis in sup-mol 73416
strip_basis 839040 to 38438 
No. steep basis in sup-mol 18001
No. local basis in sup-mol 15257
No. diffused basis in sup-mol 5180
sup-mol-ft nbas = 38438 cGTO = 123464 pGTO = 123464
    CPU time for initializing supmol      1.83 sec, wall time      0.15 sec
get_pnucp eta = 0.19937382880067556 mesh = [15 15 15]
Real space integrals int3c2e_pvxp1_sph for Vnuc - Vloc
is_pbcintor = 0, intor = int3c2e_pvxp1_sph
    CPU time for int3c kernel initialization      1.36 sec, wall time      0.16 sec
    CPU time for pbc integral int3c2e_pvxp1_sph     45.07 sec, wall time      0.83 sec
    CPU time for pnucp pass1: analytic int     48.93 sec, wall time      1.18 sec
Set ft_ao cutoff to 1.76436e-11
    CPU time for ft_ao kernel initialization      2.36 sec, wall time      1.48 sec
max_memory = 599434.694656  Gblksize = 3375  ngrids = 3375
    CPU time for ft_ao intor GTO_ft_pxp_sph   1281.00 sec, wall time    978.54 sec
    CPU time for contracting pnucp   1307.72 sec, wall time   1002.90 sec
kmesh for bvk-cell = [2 2 2]


******** <class 'pyscf.pbc.df.rsdf_builder._RSNucBuilder'> ********
mesh = [15 15 15] (3375 PWs)
ke_cutoff = 15.198804208323523
omega = 0.4665235468507424
exclude_d_aux = False
exclude_dd_block = True
j2c_eig_always = False
has_long_range = True
Set _RSNucBuilder.direct_scf_tol to 1.58359e-14
bas 0 rcut [0.0006599]  kecut [9.85366172e+08]
steep [0], [7954257.0181]
local [], []
smooth [], []
bas 1 rcut [0.00232294]  kecut [1.12274661e+08]
steep [0], [937862.37863]
local [], []
smooth [], []
bas 2 rcut [0.00609791]  kecut [19872395.79976062]
steep [0], [170727.27592]
local [], []
smooth [], []
bas 3 rcut [0.01371516]  kecut [4500497.8564561]
steep [0], [39630.966188]
local [], []
smooth [], []
bas 4 rcut [0.02783122]  kecut [1209187.76700365]
steep [0], [10888.452218]
local [], []
smooth [], []
bas 5 rcut [0.05230072]  kecut [370497.98444221]
steep [0], [3405.358266]
local [], []
smooth [], []
bas 6 rcut [0.05689098]  kecut [316209.24573222]
steep [0], [2914.4544342]
local [], []
smooth [], []
bas 7 rcut [0.09340522]  kecut [123909.18857643]
steep [0], [1161.1269444]
local [], []
smooth [], []
bas 8 rcut [0.11345634]  kecut [85691.17077696]
steep [0], [808.30364889]
local [], []
smooth [], []
bas 9 rcut [0.16333239]  kecut [42857.42292442]
steep [0], [409.34498046]
local [], []
smooth [], []
bas 10 rcut [0.30075166]  kecut [13355.73271712]
steep [0], [130.31764347]
local [], []
smooth [], []
bas 11 rcut [0.36358351]  kecut [9285.22151461]
steep [0], [91.21289372]
local [], []
smooth [], []
bas 12 rcut [0.47488269]  kecut [5561.33192558]
steep [0], [55.15730629]
local [], []
smooth [], []
bas 13 rcut [0.89789936]  kecut [1631.16806931]
steep [0], [16.55876827]
local [], []
smooth [], []
bas 14 rcut [0.94942873]  kecut [1464.62453542]
steep [0], [14.898866]
local [], []
smooth [], []
bas 15 rcut [1.34153323]  kecut [750.92509416]
steep [], []
local [0], [7.73800877]
smooth [], []
bas 16 rcut [1.87540245]  kecut [392.52641652]
steep [], []
local [0], [4.09645552]
smooth [], []
bas 17 rcut [2.24853396]  kecut [276.08795961]
steep [], []
local [0], [2.9013525]
smooth [], []
bas 18 rcut [2.65301407]  kecut [200.2621238]
steep [], []
local [0], [2.11796281]
smooth [], []
bas 19 rcut [4.92179219]  kecut [60.19533478]
steep [], []
local [0], [0.65220106]
smooth [], []
bas 20 rcut [7.21073035]  kecut [28.58576785]
steep [], []
local [0], [0.3144767]
smooth [], []
bas 21 rcut [17.84165535]  kecut [4.86027674]
steep [], []
local [], []
smooth [0], [0.05549048]
bas 22 rcut [26.57084453]  kecut [2.22555104]
steep [], []
local [], []
smooth [0], [0.02583871]
bas 23 rcut [0.01314549]  kecut [7684555.69482637]
steep [0], [56371.448178]
local [], []
smooth [], []
bas 24 rcut [0.03402474]  kecut [1267824.70887418]
steep [0], [9549.1042649]
local [], []
smooth [], []
bas 25 rcut [0.06891098]  kecut [329789.39412435]
steep [0], [2534.5774115]
local [], []
smooth [], []
bas 26 rcut [0.12314151]  kecut [108375.01180858]
steep [0], [847.18022096]
local [], []
smooth [], []
bas 27 rcut [0.20403931]  kecut [41024.30456814]
steep [0], [325.55961003]
local [], []
smooth [], []
bas 28 rcut [0.239002]  kecut [30244.3709746]
steep [0], [241.16108113]
local [], []
smooth [], []
bas 29 rcut [0.32526813]  kecut [16685.01883556]
steep [0], [134.29596767]
local [], []
smooth [], []
bas 30 rcut [0.51468651]  kecut [6868.70785588]
steep [0], [56.07387597]
local [], []
smooth [], []
bas 31 rcut [0.62100514]  kecut [4774.10615426]
steep [0], [39.20332756]
local [], []
smooth [], []
bas 32 rcut [0.75187813]  kecut [3294.99830011]
steep [0], [27.22048]
local [], []
smooth [], []
bas 33 rcut [0.9016408]  kecut [2316.12215669]
steep [0], [19.24409235]
local [], []
smooth [], []
bas 34 rcut [1.32503515]  kecut [1096.15027226]
steep [], []
local [0], [9.22038167]
smooth [], []
bas 35 rcut [1.78693424]  kecut [612.50084018]
steep [], []
local [0], [5.20220372]
smooth [], []
bas 36 rcut [1.91178377]  kecut [537.01022822]
steep [], []
local [0], [4.57107558]
smooth [], []
bas 37 rcut [2.8030428]  kecut [254.68724665]
steep [], []
local [0], [2.19532941]
smooth [], []
bas 38 rcut [5.00233976]  kecut [82.17114703]
steep [], []
local [0], [0.72213314]
smooth [], []
bas 39 rcut [8.41326726]  kecut [29.70514887]
steep [], []
local [0], [0.26572287]
smooth [], []
bas 40 rcut [18.37463752]  kecut [6.41802744]
steep [], []
local [], []
smooth [0], [0.059]
bas 41 rcut [0.12906956]  kecut [129330.53190897]
steep [0], [896.46294769]
local [], []
smooth [], []
bas 42 rcut [0.24717767]  kecut [36792.51826391]
steep [0], [258.93409633]
local [], []
smooth [], []
bas 43 rcut [0.41438517]  kecut [13506.42949305]
steep [0], [96.23556388]
local [], []
smooth [], []
bas 44 rcut [0.65529972]  kecut [5543.21125721]
steep [0], [39.9395533]
local [], []
smooth [], []
bas 45 rcut [1.04228101]  kecut [2246.13991737]
steep [], []
local [0], [16.37083485]
smooth [], []
bas 46 rcut [1.14445917]  kecut [1871.96221811]
steep [], []
local [0], [13.67563401]
smooth [], []
bas 47 rcut [1.75903891]  kecut [809.5329748]
steep [], []
local [0], [5.97862218]
smooth [], []
bas 48 rcut [2.10385803]  kecut [570.77876079]
steep [], []
local [0], [4.23467625]
smooth [], []
bas 49 rcut [2.87791858]  kecut [309.48347595]
steep [], []
local [0], [2.31470966]
smooth [], []
bas 50 rcut [3.11643904]  kecut [264.8715709]
steep [], []
local [0], [1.98514366]
smooth [], []
bas 51 rcut [5.15056369]  kecut [99.10597957]
steep [], []
local [0], [0.75262616]
smooth [], []
bas 52 rcut [10.43149472]  kecut [24.8515501]
steep [], []
local [0], [0.1923301]
smooth [], []
bas 53 rcut [21.11430987]  kecut [6.22259293]
steep [], []
local [], []
smooth [0], [0.0491]
bas 54 rcut [0.54211934]  kecut [9807.98418292]
steep [0], [63.79778384]
local [], []
smooth [], []
bas 55 rcut [0.95148787]  kecut [3280.63021376]
steep [0], [21.52287481]
local [], []
smooth [], []
bas 56 rcut [1.48968002]  kecut [1368.62155917]
steep [], []
local [0], [9.0439477]
smooth [], []
bas 57 rcut [2.24143742]  kecut [616.29777719]
steep [], []
local [0], [4.10052219]
smooth [], []
bas 58 rcut [3.3651384]  kecut [278.44826123]
steep [], []
local [0], [1.86576406]
smooth [], []
bas 59 rcut [5.19097252]  kecut [119.19105953]
steep [], []
local [0], [0.80488421]
smooth [], []
bas 60 rcut [8.58668625]  kecut [44.44479916]
steep [], []
local [0], [0.3029469]
smooth [], []
bas 61 rcut [7.14954899]  kecut [75.57429391]
steep [], []
local [0], [0.4638]
smooth [], []
bas 62 rcut [0.02902374]  kecut [1118052.7585]
steep [0], [10081.365929]
local [], []
smooth [], []
bas 63 rcut [0.08231269]  kecut [157418.17252338]
steep [0], [1468.8676987]
local [], []
smooth [], []
bas 64 rcut [0.18408824]  kecut [34120.29626113]
steep [0], [327.24650166]
local [], []
smooth [], []
bas 65 rcut [0.36504156]  kecut [9214.23828817]
steep [0], [90.52852011]
local [], []
smooth [], []
bas 66 rcut [0.52056563]  kecut [4661.39480693]
steep [0], [46.38539884]
local [], []
smooth [], []
bas 67 rcut [0.68657183]  kecut [2736.42746962]
steep [0], [27.50583083]
local [], []
smooth [], []
bas 68 rcut [1.68455713]  kecut [483.25938839]
steep [], []
local [0], [5.02281884]
smooth [], []
bas 69 rcut [2.71236587]  kecut [191.83942385]
steep [], []
local [0], [2.0306206]
smooth [], []
bas 70 rcut [6.71182994]  kecut [32.87860298]
steep [], []
local [0], [0.36066279]
smooth [], []
bas 71 rcut [11.12692876]  kecut [12.24854657]
steep [], []
local [], []
smooth [0], [0.13714107]
bas 72 rcut [0.22477523]  kecut [34043.41336359]
steep [0], [270.95043064]
local [], []
smooth [], []
bas 73 rcut [0.4860373]  kecut [7674.14319028]
steep [0], [62.53778532]
local [], []
smooth [], []
bas 74 rcut [0.89894114]  kecut [2329.64569031]
steep [0], [19.35461422]
local [], []
smooth [], []
bas 75 rcut [1.56370135]  kecut [794.20577557]
steep [], []
local [0], [6.71634775]
smooth [], []
bas 76 rcut [2.67001848]  kecut [280.02555897]
steep [], []
local [0], [2.40986467]
smooth [], []
bas 77 rcut [5.4193231]  kecut [70.26233268]
steep [], []
local [0], [0.61915095]
smooth [], []
bas 78 rcut [10.60563778]  kecut [18.86888552]
steep [], []
local [0], [0.17014575]
smooth [], []
bas 79 rcut [6.05841695]  kecut [72.11272886]
steep [], []
local [0], [0.55]
smooth [], []
rs_cell.nbas 80 nao 236
No. steep_bas in rs_cell 41
No. local_bas in rs_cell 34
No. smooth_bas in rs_cell 5
bas_map from cell to rs_cell [ 0  1  2  3  4  5  6  7  8  9 10 11 12 13 14 15 16 17 18 19 20 21 22 23
 24 25 26 27 28 29 30 31 32 33 34 35 36 37 38 39 40 41 42 43 44 45 46 47
 48 49 50 51 52 53 54 55 56 57 58 59 60 61 62 63 64 65 66 67 68 69 70 71
 72 73 74 75 76 77 78 79 80]
<class 'pyscf.pbc.df.ft_ao._RangeSeparatedCell'>.bas_type [0 0 0 0 0 0 0 0 0 0 0 0 0 0 0 1 1 1 1 1 1 2 2 0 0 0 0 0 0 0 0 0 0 0 1 1 1
 1 1 1 2 0 0 0 0 1 1 1 1 1 1 1 1 2 0 0 1 1 1 1 1 1 0 0 0 0 0 0 1 1 1 2 0 0
 0 1 1 1 1 1]
<class 'pyscf.pbc.df.ft_ao._RangeSeparatedCell'>.sh_loc [ 0  1  2  3  4  5  6  7  8  9 10 11 12 13 14 15 16 17 18 19 20 21 22 23
 24 25 26 27 28 29 30 31 32 33 34 35 36 37 38 39 40 41 42 43 44 45 46 47
 48 49 50 51 52 53 54 55 56 57 58 59 60 61 62 63 64 65 66 67 68 69 70 71
 72 73 74 75 76 77 78 79 80]
Generate supmol with rcut = 31.5123 nimgs = 807 bvk_ncells = 8
No. steep basis in sup-mol 264696
No. local basis in sup-mol 219504
No. diffused basis in sup-mol 32280
strip_basis 516480 to 2282 
No. steep basis in sup-mol 374
No. local basis in sup-mol 768
No. diffused basis in sup-mol 1140
sup-mol nbas = 2282 cGTO = 6438 pGTO = 6438
Generate supmol with rcut = 37.334 nimgs = 1215 bvk_ncells = 8
No. steep basis in sup-mol 398520
No. local basis in sup-mol 330480
No. diffused basis in sup-mol 48600
strip_basis 777600 to 36120 
No. steep basis in sup-mol 18001
No. local basis in sup-mol 16321
No. diffused basis in sup-mol 1798
sup-mol-ft nbas = 36120 cGTO = 118602 pGTO = 118602
    CPU time for initializing supmol      1.93 sec, wall time      0.14 sec
Real space integrals int3c2e for SR-Vnuc
is_pbcintor = 1, intor = PBCint3c2e_sph
    CPU time for int3c kernel initialization      1.07 sec, wall time      0.02 sec
    CPU time for pbc integral PBCint3c2e_sph      7.22 sec, wall time      0.20 sec
G=0 part for int3c2e
cell_d.nbas 5
cell_d rcut 41.8343 ke_cutoff 12.2485, mesh [15 15 15]
cell_d.nbas 5
cell_d rcut 41.8343 ke_cutoff 12.2485, mesh [15 15 15]
    CPU time for FFT smooth basis      6.33 sec, wall time      0.15 sec
    CPU time for vnuc pass1: analytic int     21.85 sec, wall time      1.58 sec
Set ft_ao cutoff to 1.76436e-11
    CPU time for ft_ao kernel initialization      2.66 sec, wall time      1.36 sec
max_memory = 599316.893696  Gblksize = 3375  ngrids = 3375
    CPU time for ft_ao intor GTO_ft_ovlp    106.35 sec, wall time     54.27 sec
    CPU time for contracting Vnuc [0:3375]    118.46 sec, wall time     60.97 sec
    CPU time for contracting Vnuc    118.46 sec, wall time     60.97 sec
    CPU time for get_nuc    143.43 sec, wall time     62.62 sec
atom Sm rad-grids = 100, ang-grids = [ 50  50  50  50  50  50  50  50  50  50  50  50  50  50  50  50  50  50
  50  50  50  50  50  50  50  50  50  50  50  50  50  50  86  86  86  86
  86  86  86  86  86  86  86  86  86  86  86  86  86 350 350 350 350 350
 350 350 350 350 350 350 350 434 434 434 434 434 434 434 434 434 434 434
 434 434 434 434 434 434 434 434 434 434 434 434 350 350 350 350 350 350
 350 350 350 350 350 350 350 350 350 350]
atom S rad-grids = 80, ang-grids = [ 50  50  50  50  50  50  50  50  50  50  50  50  50  50  50  50  50  50
  50  50  50  50  50  50  86  86  86  86  86  86  86  86  86  86  86  86
  86 350 350 350 350 350 350 350 350 350 434 434 434 434 434 434 434 434
 434 434 434 434 434 434 434 434 434 434 350 350 350 350 350 350 350 350
 350 350 350 350 350 350 350 350]
tot grids = 41952
cell vol = 358.971197  sum(weights) = 359.232876
Drop grids 10960
    CPU time for setting up grids     56.25 sec, wall time      2.64 sec
nelec by numeric integration = 78.00194223481452
    CPU time for vxc    130.62 sec, wall time      4.45 sec
    CPU time for get_j pass 1     52.69 sec, wall time      1.86 sec
    CPU time for get_j pass 2     28.63 sec, wall time      0.62 sec
    CPU time for get_j     82.24 sec, wall time      2.50 sec
mesh for ewald [13 13 13]
Ewald components = 2.99258737489999, -1056.89860283308, 124.966687135128
E1 = (-12943.663996024277+3.259019016291661e-17j)  Ecoul = 3357.2937954743866  Exc = -263.26185844552407
init E= -10778.5713873185
    CPU time for initialize scf   2547.20 sec, wall time   1400.76 sec
HOMO = 0.605106652486  LUMO = 0.605141409582

WARN: HOMO 0.605106652486 == LUMO 0.605141409582

     k-point                  mo_energy
   0 ( 0.000  0.000  0.000)   [-1.71162300e+03 -1.71162300e+03 -2.79577254e+02 -2.79577254e+02
 -2.63860129e+02 -2.63860129e+02 -2.42279910e+02 -2.42279910e+02
 -2.42279904e+02 -2.42279904e+02 -8.78451599e+01 -8.78451599e+01
 -6.08638191e+01 -6.08638191e+01 -5.41327077e+01 -5.41327077e+01
 -4.98378582e+01 -4.98378582e+01 -4.98377635e+01 -4.98377635e+01
 -3.69272496e+01 -3.69272496e+01 -3.69204510e+01 -3.69204510e+01
 -3.58454147e+01 -3.58454147e+01 -3.58426655e+01 -3.58426655e+01
 -3.58369051e+01 -3.58369051e+01 -1.15662192e+01 -1.15662192e+01
 -9.05331892e+00 -9.05331892e+00 -8.14777060e+00 -8.14777060e+00
 -8.14777000e+00 -8.14777000e+00 -7.23875262e+00 -7.23875262e+00
 -5.23871239e+00 -5.23871239e+00 -5.18847405e+00 -5.18847405e+00
 -5.18847052e+00 -5.18847052e+00 -4.06625759e+00 -4.06625759e+00
 -4.06610246e+00 -4.06610246e+00 -3.84211855e+00 -3.84211855e+00
 -3.84209306e+00 -3.84209306e+00 -3.84173525e+00 -3.84173525e+00
 -9.51206498e-01 -9.51206498e-01 -2.91566655e-01 -2.91566655e-01
 -1.79674242e-01 -1.79674242e-01 -1.79666080e-01 -1.79666080e-01
 -9.56108743e-02 -9.56108743e-02  3.02750157e-01  3.02750157e-01
  3.08331085e-01  3.08331085e-01  3.08365933e-01  3.08365933e-01
  4.73488827e-01  4.73488827e-01  4.99623209e-01  4.99623209e-01
  4.99639610e-01  4.99639610e-01  5.03913739e-01  5.03913739e-01
  5.42782084e-01  5.42782084e-01  5.42790832e-01  5.42790832e-01] [ 0.75911752  0.75911752  0.76922976  0.76922976  0.769919    0.769919
  0.78658883  0.78658883  0.79439811  0.79439811  0.79561332  0.79561332
  0.79633897  0.79633897  0.94613615  0.94613615  0.94615335  0.94615335
  0.95447874  0.95447874  1.00585826  1.00585826  1.04578614  1.04578614
  1.04589933  1.04589933  1.09871797  1.09871797  1.09872615  1.09872615
  1.28459454  1.28459454  1.28888787  1.28888787  1.28890254  1.28890254
  1.30829126  1.30829126  1.32926575  1.32926575  1.36938127  1.36938127
  1.36938277  1.36938277  1.48068251  1.48068251  1.48071961  1.48071961
  1.48628751  1.48628751  1.52943614  1.52943614  1.53135558  1.53135558
  1.53196121  1.53196121  1.6638904   1.6638904   2.02551502  2.02551502
  2.02560215  2.02560215  2.02889247  2.02889247  2.18112364  2.18112364
  2.18116564  2.18116564  2.19257473  2.19257473  2.20132254  2.20132254
  2.20133089  2.20133089  2.24685924  2.24685924  2.24696895  2.24696895
  2.24697581  2.24697581  2.43649684  2.43649684  2.53710769  2.53710769
  2.57759937  2.57759937  2.5777225   2.5777225   2.714793    2.714793
  2.71480453  2.71480453  2.72921173  2.72921173  2.83351306  2.83351306
  2.83352957  2.83352957  3.33188902  3.33188902  3.49851824  3.49851824
  3.50206222  3.50206222  3.50383069  3.50383069  3.85506549  3.85506549
  3.85531681  3.85531681  3.86809024  3.86809024 38.7232451  38.7232451
 38.73270205 38.73270205 40.12446974 40.12446974 40.12965557 40.12965557
 40.14174321 40.14174321]
   1 ( 0.000  0.000  0.500)   [-1.71162299e+03 -1.71162299e+03 -2.79577224e+02 -2.79577224e+02
 -2.63859491e+02 -2.63859491e+02 -2.42279574e+02 -2.42279574e+02
 -2.42279467e+02 -2.42279467e+02 -8.78449840e+01 -8.78449840e+01
 -6.08639314e+01 -6.08639314e+01 -5.41321207e+01 -5.41321207e+01
 -4.98374635e+01 -4.98374635e+01 -4.98372920e+01 -4.98372920e+01
 -3.69272416e+01 -3.69272416e+01 -3.69204362e+01 -3.69204362e+01
 -3.58453988e+01 -3.58453988e+01 -3.58425698e+01 -3.58425698e+01
 -3.58368305e+01 -3.58368305e+01 -1.15671542e+01 -1.15671542e+01
 -9.05238546e+00 -9.05238546e+00 -8.14763744e+00 -8.14763744e+00
 -8.14759947e+00 -8.14759947e+00 -7.23863421e+00 -7.23863421e+00
 -5.23878043e+00 -5.23878043e+00 -5.18861484e+00 -5.18861484e+00
 -5.18858457e+00 -5.18858457e+00 -4.06624530e+00 -4.06624530e+00
 -4.06609498e+00 -4.06609498e+00 -3.84205130e+00 -3.84205130e+00
 -3.84201445e+00 -3.84201445e+00 -3.84171661e+00 -3.84171661e+00
 -9.52517891e-01 -9.52517891e-01 -2.97116976e-01 -2.97116976e-01
 -1.99485849e-01 -1.99485849e-01 -1.80768090e-01 -1.80768090e-01
 -5.87359404e-02 -5.87359404e-02  2.26092126e-01  2.26092126e-01
  2.70372797e-01  2.70372797e-01  2.71796805e-01  2.71796805e-01
  5.54365733e-01  5.54365733e-01  5.73232447e-01  5.73232447e-01] [ 0.60514152  0.60514152  0.61012237  0.61012237  0.6775586   0.6775586
  0.68463852  0.68463852  0.70021949  0.70021949  0.70364775  0.70364776
  0.73960141  0.73960141  0.75884451  0.75884451  0.76234659  0.76234659
  0.77409549  0.77409549  0.77903728  0.77903728  0.7915586   0.7915586
  0.81284364  0.81284364  0.82072343  0.82072343  0.9841687   0.9841687
  1.02117024  1.02117024  1.02520757  1.02520757  1.02617826  1.02617826
  1.16557012  1.16557012  1.17630731  1.17630731  1.29503806  1.29503806
  1.30572318  1.30572318  1.3161978   1.3161978   1.39871687  1.39871692
  1.40150058  1.40150061  1.47088492  1.47088492  1.47889596  1.47889596
  1.48210249  1.48210254  1.49132699  1.49132699  1.54313194  1.54313194
  1.65764196  1.65764196  1.66531087  1.66531087  1.84884259  1.84884259
  1.9465172   1.9465172   1.98059337  1.98059337  1.99003495  1.99003496
  2.0137798   2.0137798   2.08085208  2.08085209  2.08576068  2.08576069
  2.23754981  2.23754981  2.2473793   2.24737935  2.24894573  2.24894575
  2.25580154  2.25580154  2.25623882  2.25623882  2.29793191  2.29793191
  2.52296386  2.52296386  2.5724355   2.57243551  2.57845312  2.57845312
  2.66571371  2.66571382  2.73873381  2.73873395  2.74239322  2.74239339
  2.8072565   2.80725652  2.81125967  2.81125967  3.45055434  3.45055434
  3.50867552  3.50867552  3.51244505  3.51244505  3.51626653  3.51626653
  3.63930731  3.63930731  3.64195126  3.64195126  3.86736348  3.86736348
 38.72354264 38.72354264 38.73289875 38.73289875 40.12475763 40.12475763
 40.1298416  40.1298416  40.1418976  40.1418976 ]
   2 (-0.000  0.500  0.000)   [-1.71162299e+03 -1.71162299e+03 -2.79577224e+02 -2.79577224e+02
 -2.63859491e+02 -2.63859491e+02 -2.42279574e+02 -2.42279574e+02
 -2.42279467e+02 -2.42279467e+02 -8.78449840e+01 -8.78449840e+01
 -6.08639314e+01 -6.08639314e+01 -5.41321207e+01 -5.41321207e+01
 -4.98374635e+01 -4.98374635e+01 -4.98372920e+01 -4.98372920e+01
 -3.69272416e+01 -3.69272416e+01 -3.69204362e+01 -3.69204362e+01
 -3.58453988e+01 -3.58453988e+01 -3.58425698e+01 -3.58425698e+01
 -3.58368305e+01 -3.58368305e+01 -1.15671544e+01 -1.15671544e+01
 -9.05238546e+00 -9.05238546e+00 -8.14763744e+00 -8.14763744e+00
 -8.14759947e+00 -8.14759947e+00 -7.23863421e+00 -7.23863421e+00
 -5.23878043e+00 -5.23878043e+00 -5.18861484e+00 -5.18861484e+00
 -5.18858457e+00 -5.18858457e+00 -4.06624529e+00 -4.06624529e+00
 -4.06609498e+00 -4.06609498e+00 -3.84205130e+00 -3.84205130e+00
 -3.84201446e+00 -3.84201446e+00 -3.84171661e+00 -3.84171661e+00
 -9.52519399e-01 -9.52519399e-01 -2.97116974e-01 -2.97116974e-01
 -1.99485858e-01 -1.99485858e-01 -1.80768084e-01 -1.80768084e-01
 -5.87359542e-02 -5.87359542e-02  2.26092090e-01  2.26092090e-01
  2.70372817e-01  2.70372817e-01  2.71796805e-01  2.71796805e-01
  5.54365676e-01  5.54365677e-01  5.73232426e-01  5.73232426e-01] [ 0.60514153  0.60514153  0.6101224   0.6101224   0.67755866  0.67755866
  0.68463847  0.68463847  0.70021936  0.70021936  0.70364768  0.70364768
  0.73959539  0.73959539  0.7588445   0.7588445   0.7623466   0.7623466
  0.77409548  0.77409548  0.77903726  0.77903726  0.79155858  0.79155858
  0.81284369  0.81284369  0.82072336  0.82072336  0.98416615  0.98416615
  1.02117042  1.02117042  1.02520781  1.02520781  1.02617811  1.02617811
  1.16556907  1.16556907  1.17630625  1.17630625  1.29503811  1.29503811
  1.30572321  1.30572321  1.31619748  1.31619748  1.39872497  1.39872498
  1.40151666  1.40151667  1.47088436  1.47088436  1.47889785  1.47889787
  1.48214029  1.48214031  1.49132704  1.49132704  1.54313202  1.54313202
  1.65764189  1.65764189  1.66531089  1.66531089  1.84881713  1.84881713
  1.94651707  1.94651708  1.98059431  1.98059431  1.99003636  1.99003636
  2.01378116  2.01378116  2.08086497  2.08086497  2.08577498  2.08577498
  2.23754987  2.23754987  2.2473802   2.24738026  2.24894741  2.24894746
  2.25580308  2.25580308  2.25624034  2.25624034  2.29793218  2.29793218
  2.52296477  2.52296477  2.57243573  2.57243573  2.57845296  2.57845296
  2.6657072   2.6657072   2.73882285  2.73882287  2.7424955   2.74249553
  2.80727666  2.80727667  2.81127048  2.81127048  3.45055441  3.45055441
  3.50867546  3.50867546  3.51244493  3.51244493  3.51626661  3.51626661
  3.63930666  3.63930666  3.64195227  3.64195227  3.86736364  3.86736364
 38.72354271 38.72354271 38.73289878 38.73289878 40.12475773 40.12475773
 40.1298416  40.1298416  40.14189762 40.14189762]
   3 ( 0.000  0.500  0.500)   [-1.71162302e+03 -1.71162302e+03 -2.79577373e+02 -2.79577373e+02
 -2.63859431e+02 -2.63859431e+02 -2.42279525e+02 -2.42279525e+02
 -2.42279443e+02 -2.42279443e+02 -8.78485841e+01 -8.78485841e+01
 -6.08638217e+01 -6.08638217e+01 -5.41320650e+01 -5.41320650e+01
 -4.98374024e+01 -4.98374024e+01 -4.98372717e+01 -4.98372717e+01
 -3.69272357e+01 -3.69272357e+01 -3.69204371e+01 -3.69204371e+01
 -3.58453089e+01 -3.58453089e+01 -3.58426388e+01 -3.58426388e+01
 -3.58368104e+01 -3.58368104e+01 -1.15662148e+01 -1.15662148e+01
 -9.05229811e+00 -9.05229811e+00 -8.14761944e+00 -8.14761944e+00
 -8.14758945e+00 -8.14758945e+00 -7.24369930e+00 -7.24369930e+00
 -5.23875137e+00 -5.23875137e+00 -5.18854297e+00 -5.18854297e+00
 -5.18853535e+00 -5.18853535e+00 -4.06624664e+00 -4.06624664e+00
 -4.06609115e+00 -4.06609115e+00 -3.84213701e+00 -3.84213701e+00
 -3.84202742e+00 -3.84202742e+00 -3.84158407e+00 -3.84158407e+00
 -9.66912042e-01 -9.66912042e-01 -2.96817626e-01 -2.96817623e-01
 -1.91434433e-01 -1.91434427e-01 -1.85465464e-01 -1.85465464e-01
 -8.58605958e-02 -8.58605958e-02  2.72841328e-01  2.72841330e-01
  2.93601555e-01  2.93601556e-01  2.99589566e-01  2.99589566e-01
  4.24533980e-01  4.24533980e-01  5.72367661e-01  5.72367661e-01
  5.90104293e-01  5.90104293e-01] [ 0.63476169  0.6347617   0.6536254   0.6536254   0.65802293  0.65802293
  0.67049954  0.67049954  0.74991952  0.74991952  0.75186871  0.75186871
  0.76694763  0.76694763  0.77331178  0.77331178  0.78822113  0.78822113
  0.79696613  0.79696613  0.80478805  0.80478806  0.88145896  0.88145897
  0.89682683  0.89682683  0.90974274  0.90974274  0.91000643  0.91000643
  0.93099067  0.93099067  1.03618621  1.03618625  1.09822605  1.09822605
  1.17753557  1.17753557  1.28638331  1.28638331  1.30909344  1.30909344
  1.405684    1.40568403  1.4197944   1.41979441  1.42110534  1.42110536
  1.43894691  1.43894692  1.45538765  1.45538765  1.4632865   1.46328652
  1.46568176  1.46568176  1.52909133  1.52909133  1.53177854  1.53177854
  1.84383977  1.84383991  1.86648466  1.86648466  1.97101387  1.97101445
  2.00082075  2.00082075  2.01306125  2.01306125  2.05312886  2.05312928
  2.08351295  2.08351296  2.08471685  2.08471687  2.09897379  2.09897395
  2.21212536  2.21212547  2.24327311  2.24327311  2.24781022  2.24781022
  2.27225891  2.27225891  2.27228387  2.27228387  2.27427125  2.27427125
  2.30963241  2.30963241  2.48030238  2.48030238  2.58129729  2.58129729
  2.63415725  2.63415725  2.63515613  2.63515613  2.76342203  2.76342203
  2.8058451   2.8058451   3.32013263  3.32013263  3.4486346   3.4486346
  3.58370673  3.58370678  3.59691103  3.59691103  3.60334875  3.60334878
  3.71522108  3.71522108  3.72820403  3.72820403 38.72348025 38.72348025
 38.73294053 38.73294053 40.12466987 40.12466987 40.12985926 40.12985926
 40.14193253 40.14193253]
   4 ( 0.500 -0.000 -0.000)   [-1.71162299e+03 -1.71162299e+03 -2.79577224e+02 -2.79577224e+02
 -2.63859491e+02 -2.63859491e+02 -2.42279574e+02 -2.42279574e+02
 -2.42279467e+02 -2.42279467e+02 -8.78449840e+01 -8.78449840e+01
 -6.08639314e+01 -6.08639314e+01 -5.41321207e+01 -5.41321207e+01
 -4.98374635e+01 -4.98374635e+01 -4.98372920e+01 -4.98372920e+01
 -3.69272416e+01 -3.69272416e+01 -3.69204362e+01 -3.69204362e+01
 -3.58453988e+01 -3.58453988e+01 -3.58425698e+01 -3.58425698e+01
 -3.58368305e+01 -3.58368305e+01 -1.15671543e+01 -1.15671543e+01
 -9.05238546e+00 -9.05238546e+00 -8.14763744e+00 -8.14763744e+00
 -8.14759947e+00 -8.14759947e+00 -7.23863421e+00 -7.23863421e+00
 -5.23878043e+00 -5.23878043e+00 -5.18861484e+00 -5.18861484e+00
 -5.18858457e+00 -5.18858457e+00 -4.06624529e+00 -4.06624529e+00
 -4.06609498e+00 -4.06609498e+00 -3.84205130e+00 -3.84205130e+00
 -3.84201445e+00 -3.84201445e+00 -3.84171662e+00 -3.84171662e+00
 -9.52517930e-01 -9.52517930e-01 -2.97116997e-01 -2.97116996e-01
 -1.99485908e-01 -1.99485908e-01 -1.80768091e-01 -1.80768091e-01
 -5.87360581e-02 -5.87360580e-02  2.26092064e-01  2.26092064e-01
  2.70372774e-01  2.70372774e-01  2.71796764e-01  2.71796764e-01
  5.54365560e-01  5.54365560e-01  5.73231903e-01  5.73231903e-01] [ 0.60514141  0.60514141  0.61012225  0.61012225  0.67755856  0.67755856
  0.68463836  0.68463836  0.70021945  0.70021945  0.7036477   0.7036477
  0.73960224  0.73960224  0.7588445   0.7588445   0.76234657  0.76234657
  0.77409549  0.77409549  0.77903719  0.77903719  0.7915585   0.7915585
  0.81284366  0.81284366  0.82072331  0.82072331  0.98416813  0.98416813
  1.02117082  1.02117082  1.0252079   1.0252079   1.02617821  1.02617821
  1.16556854  1.16556854  1.17630572  1.17630572  1.2950382   1.2950382
  1.30572328  1.30572328  1.31619555  1.31619555  1.39867881  1.39867882
  1.40148512  1.40148512  1.47087986  1.47087986  1.47889341  1.47889345
  1.48212966  1.48212968  1.49132715  1.49132715  1.54313216  1.54313216
  1.65764192  1.65764192  1.66531095  1.66531095  1.84886289  1.8488629
  1.9465169   1.94651691  1.98059301  1.98059301  1.9900344   1.9900344
  2.01378531  2.01378531  2.08084257  2.08084257  2.08574591  2.08574591
  2.23755     2.23755     2.24737607  2.24737614  2.24894326  2.24894332
  2.25579937  2.25579937  2.25623579  2.25623579  2.29793163  2.29793163
  2.52296588  2.52296588  2.57243502  2.57243503  2.57845378  2.57845378
  2.66572715  2.66572718  2.73870348  2.73870353  2.74213646  2.74213653
  2.80723981  2.80723983  2.81124755  2.81124755  3.45055452  3.45055452
  3.50867539  3.50867539  3.5124448   3.5124448   3.51626654  3.51626654
  3.6393066   3.6393066   3.64195209  3.64195209  3.86736427  3.86736427
 38.7235427  38.7235427  38.73289873 38.73289873 40.1247577  40.1247577
 40.12984158 40.12984158 40.14189758 40.14189758]
   5 ( 0.500  0.000  0.500)   [-1.71162302e+03 -1.71162302e+03 -2.79577373e+02 -2.79577373e+02
 -2.63859431e+02 -2.63859431e+02 -2.42279525e+02 -2.42279525e+02
 -2.42279443e+02 -2.42279443e+02 -8.78485843e+01 -8.78485843e+01
 -6.08638217e+01 -6.08638217e+01 -5.41320650e+01 -5.41320650e+01
 -4.98374024e+01 -4.98374024e+01 -4.98372716e+01 -4.98372716e+01
 -3.69272357e+01 -3.69272357e+01 -3.69204371e+01 -3.69204371e+01
 -3.58453089e+01 -3.58453089e+01 -3.58426388e+01 -3.58426388e+01
 -3.58368104e+01 -3.58368104e+01 -1.15662148e+01 -1.15662148e+01
 -9.05229811e+00 -9.05229811e+00 -8.14761946e+00 -8.14761946e+00
 -8.14758943e+00 -8.14758943e+00 -7.24370109e+00 -7.24370109e+00
 -5.23875137e+00 -5.23875137e+00 -5.18854297e+00 -5.18854297e+00
 -5.18853535e+00 -5.18853535e+00 -4.06624665e+00 -4.06624665e+00
 -4.06609116e+00 -4.06609116e+00 -3.84213703e+00 -3.84213703e+00
 -3.84202754e+00 -3.84202754e+00 -3.84158407e+00 -3.84158407e+00
 -9.66939659e-01 -9.66939659e-01 -2.96817667e-01 -2.96817663e-01
 -1.91434528e-01 -1.91434523e-01 -1.85465490e-01 -1.85465490e-01
 -8.58621440e-02 -8.58621440e-02  2.72840184e-01  2.72840186e-01
  2.93601497e-01  2.93601498e-01  2.99589539e-01  2.99589539e-01
  4.24533707e-01  4.24533707e-01  5.72354354e-01  5.72354355e-01
  5.90104494e-01  5.90104494e-01] [ 0.63478514  0.63478514  0.65362919  0.6536292   0.65802281  0.65802281
  0.67049208  0.67049208  0.7499193   0.7499193   0.75186866  0.75186866
  0.76694761  0.76694761  0.77331176  0.77331176  0.78822113  0.78822113
  0.79696613  0.79696613  0.80478485  0.80478486  0.88145791  0.88145792
  0.89682543  0.89682543  0.90974602  0.90974603  0.91000986  0.91000986
  0.93097448  0.93097448  1.0354381   1.03543812  1.0982223   1.0982223
  1.17758488  1.17758488  1.28638353  1.28638353  1.30909336  1.30909336
  1.40567989  1.40567992  1.41979407  1.41979407  1.42110471  1.42110473
  1.43894564  1.43894565  1.45538733  1.45538733  1.46298603  1.46298605
  1.46568074  1.46568075  1.52909406  1.52909406  1.53178243  1.53178243
  1.84374388  1.843744    1.86647028  1.86647029  1.97026637  1.97026693
  2.00078655  2.00078655  2.01306388  2.01306388  2.05312426  2.05312468
  2.08351164  2.08351165  2.0847144   2.08471441  2.09898285  2.09898296
  2.21212979  2.21212988  2.24327304  2.24327304  2.24781445  2.24781446
  2.27225881  2.27225881  2.27228393  2.27228393  2.27426941  2.27426941
  2.30961512  2.30961512  2.48029668  2.48029668  2.57993085  2.57993085
  2.63415681  2.63415681  2.63516324  2.63516324  2.76335803  2.76335803
  2.8043913   2.8043913   3.32013252  3.32013252  3.44863473  3.44863473
  3.58370641  3.58370645  3.59691081  3.59691082  3.60334842  3.60334845
  3.71522148  3.71522149  3.72820442  3.72820442 38.72348033 38.72348033
 38.73294069 38.73294069 40.12466995 40.12466995 40.12985941 40.12985941
 40.14193252 40.14193252]
   6 ( 0.500  0.500  0.000)   [-1.71162302e+03 -1.71162302e+03 -2.79577373e+02 -2.79577373e+02
 -2.63859431e+02 -2.63859431e+02 -2.42279525e+02 -2.42279525e+02
 -2.42279443e+02 -2.42279443e+02 -8.78485843e+01 -8.78485843e+01
 -6.08638217e+01 -6.08638217e+01 -5.41320650e+01 -5.41320650e+01
 -4.98374024e+01 -4.98374024e+01 -4.98372716e+01 -4.98372716e+01
 -3.69272357e+01 -3.69272357e+01 -3.69204371e+01 -3.69204371e+01
 -3.58453089e+01 -3.58453089e+01 -3.58426388e+01 -3.58426388e+01
 -3.58368104e+01 -3.58368104e+01 -1.15662147e+01 -1.15662147e+01
 -9.05229811e+00 -9.05229811e+00 -8.14761945e+00 -8.14761945e+00
 -8.14758944e+00 -8.14758944e+00 -7.24370264e+00 -7.24370264e+00
 -5.23875137e+00 -5.23875137e+00 -5.18854300e+00 -5.18854300e+00
 -5.18853532e+00 -5.18853532e+00 -4.06624666e+00 -4.06624666e+00
 -4.06609116e+00 -4.06609116e+00 -3.84213700e+00 -3.84213700e+00
 -3.84202761e+00 -3.84202761e+00 -3.84158407e+00 -3.84158407e+00
 -9.66979294e-01 -9.66979293e-01 -2.96817657e-01 -2.96817654e-01
 -1.91434539e-01 -1.91434534e-01 -1.85465410e-01 -1.85465410e-01
 -8.58622909e-02 -8.58622909e-02  2.72841352e-01  2.72841354e-01
  2.93601306e-01  2.93601306e-01  2.99589250e-01  2.99589250e-01
  4.24532486e-01  4.24532486e-01  5.72320839e-01  5.72320840e-01
  5.90106509e-01  5.90106509e-01] [ 0.63479628  0.63479628  0.65363     0.65363     0.65802186  0.65802186
  0.67048913  0.67048914  0.74991907  0.74991908  0.75186859  0.75186859
  0.76694754  0.76694754  0.77331177  0.77331177  0.78822123  0.78822123
  0.79696607  0.79696607  0.80478473  0.80478474  0.88145501  0.88145502
  0.89682251  0.89682251  0.90974078  0.90974078  0.9100031   0.9100031
  0.93096378  0.93096378  1.03481324  1.03481328  1.09823496  1.09823496
  1.17758338  1.17758338  1.28638503  1.28638503  1.30909195  1.30909195
  1.40568061  1.40568064  1.41979307  1.41979307  1.42110386  1.42110387
  1.43894858  1.43894858  1.45539013  1.45539013  1.46290868  1.46290869
  1.46568362  1.46568362  1.5290834   1.52908341  1.53177157  1.53177157
  1.84374839  1.84374851  1.86645808  1.86645809  1.96980864  1.96980915
  2.00076495  2.00076495  2.01305717  2.01305717  2.05308856  2.05308893
  2.08351186  2.08351187  2.08470909  2.08470911  2.09894893  2.09894906
  2.21211016  2.21211025  2.2432739   2.2432739   2.24779724  2.24779725
  2.27225968  2.27225968  2.27228487  2.27228487  2.27426791  2.27426791
  2.30963419  2.30963419  2.4802947   2.4802947   2.57980628  2.57980628
  2.63414798  2.63414798  2.6351549   2.6351549   2.76340322  2.76340322
  2.80424549  2.8042455   3.32013215  3.32013215  3.44863596  3.44863596
  3.5837022   3.58370224  3.59690838  3.59690838  3.60334378  3.60334381
  3.71522186  3.71522186  3.72820463  3.72820464 38.7234804  38.7234804
 38.73294081 38.73294081 40.12466998 40.12466998 40.12985953 40.12985953
 40.14193256 40.14193256]
   7 ( 0.500  0.500  0.500)   [-1.71162299e+03 -1.71162299e+03 -2.79577224e+02 -2.79577224e+02
 -2.63859491e+02 -2.63859491e+02 -2.42279569e+02 -2.42279569e+02
 -2.42279471e+02 -2.42279471e+02 -8.78449840e+01 -8.78449840e+01
 -6.08639314e+01 -6.08639314e+01 -5.41321197e+01 -5.41321197e+01
 -4.98373892e+01 -4.98373892e+01 -4.98373679e+01 -4.98373679e+01
 -3.69272281e+01 -3.69272281e+01 -3.69204492e+01 -3.69204492e+01
 -3.58452847e+01 -3.58452847e+01 -3.58425989e+01 -3.58425989e+01
 -3.58369156e+01 -3.58369156e+01 -1.15671316e+01 -1.15671316e+01
 -9.05238653e+00 -9.05238653e+00 -8.14763632e+00 -8.14763632e+00
 -8.14759981e+00 -8.14759981e+00 -7.23863515e+00 -7.23863515e+00
 -5.23878087e+00 -5.23878087e+00 -5.18861243e+00 -5.18861243e+00
 -5.18858786e+00 -5.18858786e+00 -4.06625634e+00 -4.06625634e+00
 -4.06608394e+00 -4.06608394e+00 -3.84205683e+00 -3.84205683e+00
 -3.84203069e+00 -3.84203069e+00 -3.84169479e+00 -3.84169479e+00
 -9.52497590e-01 -9.52497590e-01 -2.97126877e-01 -2.97126877e-01
 -1.99505840e-01 -1.99505840e-01 -1.80772979e-01 -1.80772979e-01
 -5.87479875e-02 -5.87479875e-02  2.25816486e-01  2.25816486e-01
  2.70383249e-01  2.70383249e-01  2.71805098e-01  2.71805098e-01
  5.54429922e-01  5.54429922e-01  5.73003906e-01  5.73003906e-01
  6.05106652e-01  6.05106652e-01] [ 0.61008961  0.61008961  0.67736184  0.67736184  0.68443339  0.68443339
  0.70025272  0.70025272  0.70366799  0.70366799  0.74381843  0.74381843
  0.7587805   0.7587805   0.76302975  0.76302975  0.77341112  0.77341112
  0.77935165  0.77935165  0.7932783   0.7932783   0.81209796  0.81209796
  0.81991366  0.81991366  0.97870451  0.97870451  1.02146943  1.02146943
  1.02517727  1.02517727  1.02623977  1.02623977  1.16547244  1.16547244
  1.17621206  1.17621206  1.29501212  1.29501212  1.30572291  1.30572291
  1.31601132  1.31601132  1.39977054  1.39977058  1.40255851  1.40255853
  1.47033037  1.47033037  1.47854622  1.47854622  1.49080816  1.49080816
  1.51251688  1.51251692  1.54386387  1.54386387  1.65765484  1.65765484
  1.66532601  1.66532601  1.891337    1.891337    1.94758079  1.94758079
  1.98071862  1.98071863  1.99015038  1.99015038  2.01598066  2.01598066
  2.08118911  2.08118912  2.08614883  2.08614884  2.23755795  2.23755795
  2.24802911  2.24802912  2.25270227  2.25270229  2.25585967  2.25585968
  2.25628659  2.25628659  2.29806786  2.29806786  2.5180131   2.5180131
  2.57243909  2.57243909  2.57847462  2.57847462  2.74229712  2.74229751
  2.74359087  2.74359397  2.74725921  2.74726217  2.80767901  2.80767902
  2.81141497  2.81141498  3.44961147  3.44961147  3.50890582  3.50890582
  3.51152618  3.51152618  3.5170459   3.5170459   3.638989    3.638989
  3.64145503  3.64145503  3.86875489  3.86875489 38.72333322 38.72333322
 38.73310704 38.73310704 40.12448216 40.12448216 40.13001251 40.13001251
 40.14200295 40.14200295]
nelec by numeric integration = 78.00494185458373
    CPU time for vxc     72.98 sec, wall time      1.86 sec
    CPU time for get_j pass 1     42.47 sec, wall time      1.14 sec
    CPU time for get_j pass 2     26.43 sec, wall time      0.62 sec
    CPU time for get_j     69.62 sec, wall time      1.77 sec
E1 = (-12730.760344442893+4.86806652792891e-13j)  Ecoul = 3115.3786224042424  Exc = -257.0692069084231
cycle= 1 E= -10801.3902572701  delta_E= -22.8  |g|= 11.6  |ddm|= 1.36e+06
    CPU time for cycle= 1    161.30 sec, wall time      3.95 sec
diis-norm(errvec)=16.3588
diis-c [-267.61061125+0.j    1.        +0.j]
HOMO = -1.89215644466  LUMO = -0.493773678839
     k-point                  mo_energy
   0 ( 0.000  0.000  0.000)   [-1716.80489786 -1716.80489786  -285.10713566  -285.10713566
  -269.38165127  -269.38165127  -247.80359005  -247.80359005
  -247.80344348  -247.80344348   -86.93007506   -86.93007506
   -66.24725478   -66.24725478   -59.53307995   -59.53307995
   -55.22065577   -55.22065577   -55.22026895   -55.22026895
   -42.5440368    -42.5440368    -42.53740522   -42.53740522
   -41.44957513   -41.44957513   -41.44681113   -41.44681113
   -41.44123157   -41.44123157   -15.96208079   -15.96208079
   -13.35553364   -13.35553364   -12.410251     -12.410251
   -12.40937735   -12.40937735    -8.1852917     -8.1852917
    -8.18452104    -8.18452104    -7.94019408    -7.94019408
    -7.93966176    -7.93966176    -7.93904131    -7.93904131
    -6.46314543    -6.46314543    -4.45436315    -4.45436315
    -4.40447872    -4.40447872    -4.40436521    -4.40436521
    -2.93286301    -2.93286301    -2.81646689    -2.81646689
    -2.81427342    -2.81427342    -2.81073301    -2.81073301
    -2.76630813    -2.76630813    -2.76490612    -2.76490612
    -2.7627293     -2.7627293     -2.7599139     -2.7599139
    -2.06174069    -2.06174069    -1.9007709     -1.9007709
    -1.89838816    -1.89838816] [-0.49377368 -0.49377368 -0.49116562 -0.49116562 -0.46365068 -0.46365068
 -0.46009143 -0.46009143 -0.45875549 -0.45875549  0.15494438  0.15494438
  0.54611685  0.54611685  0.55535364  0.55535364  0.56737821  0.56737821
  0.56758897  0.56758897  0.6996752   0.6996752   0.71319641  0.71319641
  0.71456334  0.71456334  0.78929494  0.78929494  0.80324521  0.80324521
  0.80364587  0.80364587  0.80613836  0.80613836  0.857227    0.857227
  0.85794901  0.85794901  0.8613136   0.8613136   0.92337037  0.92337037
  0.92344433  0.92344433  1.00495722  1.00495722  1.00708411  1.00708411
  1.00798859  1.00798859  1.05578239  1.05578239  1.50101247  1.50101247
  1.50102118  1.50102118  1.55577983  1.55577983  1.55717486  1.55717486
[...]
steep [], []
local [0], [4.57107558]
smooth [], []
bas 37 rcut [2.8030428]  kecut [254.68724665]
steep [], []
local [0], [2.19532941]
smooth [], []
bas 38 rcut [5.00233976]  kecut [82.17114703]
steep [], []
local [0], [0.72213314]
smooth [], []
bas 39 rcut [8.41326726]  kecut [29.70514887]
steep [], []
local [0], [0.26572287]
smooth [], []
bas 40 rcut [18.37463752]  kecut [6.41802744]
steep [], []
local [], []
smooth [0], [0.059]
bas 41 rcut [0.12906956]  kecut [129330.53190897]
steep [0], [896.46294769]
local [], []
smooth [], []
bas 42 rcut [0.24717767]  kecut [36792.51826391]
steep [0], [258.93409633]
local [], []
smooth [], []
bas 43 rcut [0.41438517]  kecut [13506.42949305]
steep [0], [96.23556388]
local [], []
smooth [], []
bas 44 rcut [0.65529972]  kecut [5543.21125721]
steep [0], [39.9395533]
local [], []
smooth [], []
bas 45 rcut [1.04228101]  kecut [2246.13991737]
steep [], []
local [0], [16.37083485]
smooth [], []
bas 46 rcut [1.14445917]  kecut [1871.96221811]
steep [], []
local [0], [13.67563401]
smooth [], []
bas 47 rcut [1.75903891]  kecut [809.5329748]
steep [], []
local [0], [5.97862218]
smooth [], []
bas 48 rcut [2.10385803]  kecut [570.77876079]
steep [], []
local [0], [4.23467625]
smooth [], []
bas 49 rcut [2.87791858]  kecut [309.48347595]
steep [], []
local [0], [2.31470966]
smooth [], []
bas 50 rcut [3.11643904]  kecut [264.8715709]
steep [], []
local [0], [1.98514366]
smooth [], []
bas 51 rcut [5.15056369]  kecut [99.10597957]
steep [], []
local [0], [0.75262616]
smooth [], []
bas 52 rcut [10.43149472]  kecut [24.8515501]
steep [], []
local [0], [0.1923301]
smooth [], []
bas 53 rcut [21.11430987]  kecut [6.22259293]
steep [], []
local [], []
smooth [0], [0.0491]
bas 54 rcut [0.54211934]  kecut [9807.98418292]
steep [0], [63.79778384]
local [], []
smooth [], []
bas 55 rcut [0.95148787]  kecut [3280.63021376]
steep [0], [21.52287481]
local [], []
smooth [], []
bas 56 rcut [1.48968002]  kecut [1368.62155917]
steep [], []
local [0], [9.0439477]
smooth [], []
bas 57 rcut [2.24143742]  kecut [616.29777719]
steep [], []
local [0], [4.10052219]
smooth [], []
bas 58 rcut [3.3651384]  kecut [278.44826123]
steep [], []
local [0], [1.86576406]
smooth [], []
bas 59 rcut [5.19097252]  kecut [119.19105953]
steep [], []
local [0], [0.80488421]
smooth [], []
bas 60 rcut [8.58668625]  kecut [44.44479916]
steep [], []
local [0], [0.3029469]
smooth [], []
bas 61 rcut [7.14954899]  kecut [75.57429391]
steep [], []
local [0], [0.4638]
smooth [], []
bas 62 rcut [0.02902374]  kecut [1118052.7585]
steep [0], [10081.365929]
local [], []
smooth [], []
bas 63 rcut [0.08231269]  kecut [157418.17252338]
steep [0], [1468.8676987]
local [], []
smooth [], []
bas 64 rcut [0.18408824]  kecut [34120.29626113]
steep [0], [327.24650166]
local [], []
smooth [], []
bas 65 rcut [0.36504156]  kecut [9214.23828817]
steep [0], [90.52852011]
local [], []
smooth [], []
bas 66 rcut [0.52056563]  kecut [4661.39480693]
steep [0], [46.38539884]
local [], []
smooth [], []
bas 67 rcut [0.68657183]  kecut [2736.42746962]
steep [0], [27.50583083]
local [], []
smooth [], []
bas 68 rcut [1.68455713]  kecut [483.25938839]
steep [], []
local [0], [5.02281884]
smooth [], []
bas 69 rcut [2.71236587]  kecut [191.83942385]
steep [], []
local [0], [2.0306206]
smooth [], []
bas 70 rcut [6.71182994]  kecut [32.87860298]
steep [], []
local [0], [0.36066279]
smooth [], []
bas 71 rcut [11.12692876]  kecut [12.24854657]
steep [], []
local [], []
smooth [0], [0.13714107]
bas 72 rcut [0.22477523]  kecut [34043.41336359]
steep [0], [270.95043064]
local [], []
smooth [], []
bas 73 rcut [0.4860373]  kecut [7674.14319028]
steep [0], [62.53778532]
local [], []
smooth [], []
bas 74 rcut [0.89894114]  kecut [2329.64569031]
steep [0], [19.35461422]
local [], []
smooth [], []
bas 75 rcut [1.56370135]  kecut [794.20577557]
steep [], []
local [0], [6.71634775]
smooth [], []
bas 76 rcut [2.67001848]  kecut [280.02555897]
steep [], []
local [0], [2.40986467]
smooth [], []
bas 77 rcut [5.4193231]  kecut [70.26233268]
steep [], []
local [0], [0.61915095]
smooth [], []
bas 78 rcut [10.60563778]  kecut [18.86888552]
steep [], []
local [0], [0.17014575]
smooth [], []
bas 79 rcut [6.05841695]  kecut [72.11272886]
steep [], []
local [0], [0.55]
smooth [], []
rs_cell.nbas 80 nao 236
No. steep_bas in rs_cell 41
No. local_bas in rs_cell 34
No. smooth_bas in rs_cell 5
bas_map from cell to rs_cell [ 0  1  2  3  4  5  6  7  8  9 10 11 12 13 14 15 16 17 18 19 20 21 22 23
 24 25 26 27 28 29 30 31 32 33 34 35 36 37 38 39 40 41 42 43 44 45 46 47
 48 49 50 51 52 53 54 55 56 57 58 59 60 61 62 63 64 65 66 67 68 69 70 71
 72 73 74 75 76 77 78 79 80]
<class 'pyscf.pbc.df.ft_ao._RangeSeparatedCell'>.bas_type [0 0 0 0 0 0 0 0 0 0 0 0 0 0 0 1 1 1 1 1 1 2 2 0 0 0 0 0 0 0 0 0 0 0 1 1 1
 1 1 1 2 0 0 0 0 1 1 1 1 1 1 1 1 2 0 0 1 1 1 1 1 1 0 0 0 0 0 0 1 1 1 2 0 0
 0 1 1 1 1 1]
<class 'pyscf.pbc.df.ft_ao._RangeSeparatedCell'>.sh_loc [ 0  1  2  3  4  5  6  7  8  9 10 11 12 13 14 15 16 17 18 19 20 21 22 23
 24 25 26 27 28 29 30 31 32 33 34 35 36 37 38 39 40 41 42 43 44 45 46 47
 48 49 50 51 52 53 54 55 56 57 58 59 60 61 62 63 64 65 66 67 68 69 70 71
 72 73 74 75 76 77 78 79 80]
Generate supmol with rcut = 31.5123 nimgs = 807 bvk_ncells = 8
No. steep basis in sup-mol 264696
No. local basis in sup-mol 219504
No. diffused basis in sup-mol 32280
strip_basis 516480 to 2282 
No. steep basis in sup-mol 374
No. local basis in sup-mol 768
No. diffused basis in sup-mol 1140
sup-mol nbas = 2282 cGTO = 6438 pGTO = 6438
Generate supmol with rcut = 37.334 nimgs = 1215 bvk_ncells = 8
No. steep basis in sup-mol 398520
No. local basis in sup-mol 330480
No. diffused basis in sup-mol 48600
strip_basis 777600 to 36120 
No. steep basis in sup-mol 18001
No. local basis in sup-mol 16321
No. diffused basis in sup-mol 1798
sup-mol-ft nbas = 36120 cGTO = 118602 pGTO = 118602
    CPU time for initializing supmol      1.95 sec, wall time      0.15 sec
Real space integrals int3c2e for SR-Vnuc
is_pbcintor = 1, intor = PBCint3c2e_sph
    CPU time for int3c kernel initialization      1.14 sec, wall time      0.03 sec
    CPU time for pbc integral PBCint3c2e_sph      7.88 sec, wall time      0.22 sec
G=0 part for int3c2e
cell_d.nbas 5
cell_d rcut 41.8343 ke_cutoff 12.2485, mesh [15 15 15]
cell_d.nbas 5
cell_d rcut 41.8343 ke_cutoff 12.2485, mesh [15 15 15]
    CPU time for FFT smooth basis      5.09 sec, wall time      0.09 sec
    CPU time for vnuc pass1: analytic int     21.10 sec, wall time      1.54 sec
Set ft_ao cutoff to 1.76436e-11
    CPU time for ft_ao kernel initialization      2.71 sec, wall time      1.36 sec
max_memory = 599254.654976  Gblksize = 3375  ngrids = 3375
    CPU time for ft_ao intor GTO_ft_ovlp    113.91 sec, wall time     61.83 sec
    CPU time for contracting Vnuc [0:3375]    126.34 sec, wall time     68.61 sec
    CPU time for contracting Vnuc    126.34 sec, wall time     68.61 sec
    CPU time for get_nuc    149.18 sec, wall time     70.20 sec
nelec by numeric integration = 78.00139533977082
    CPU time for vxc     76.80 sec, wall time      1.90 sec
    CPU time for get_j pass 1     44.34 sec, wall time      1.23 sec
    CPU time for get_j pass 2     29.38 sec, wall time      0.69 sec
    CPU time for get_j     74.55 sec, wall time      1.93 sec
mesh for ewald [15 15 15]
Ewald components = 8.1509248673459e-10, -0.157421337783107, 0.0558214824942946
nkpts =  8
nkpts =  8
ETB for S: l = 0, exps = 0.27428214576 * 2^n , n = 0..16
ETB for S: l = 1, exps = 0.30550922318885 * 2^n , n = 0..13
ETB for S: l = 2, exps = 0.34029150966 * 2^n , n = 0..10
ETB for S: l = 3, exps = 0.6118175059819717 * 2^n , n = 0..5
ETB for S: l = 4, exps = 1.1 * 2^n , n = 0..0
ETB for Sm: l = 0, exps = 0.051677420246 * 2^n , n = 0..28
ETB for Sm: l = 1, exps = 0.07808927960372025 * 2^n , n = 0..24
ETB for Sm: l = 2, exps = 0.07123708772933661 * 2^n , n = 0..21
ETB for Sm: l = 3, exps = 0.10764571519572899 * 2^n , n = 0..18
ETB for Sm: l = 4, exps = 0.0982 * 2^n , n = 0..15
ETB for Sm: l = 5, exps = 0.24392370112223208 * 2^n , n = 0..10
ETB for Sm: l = 6, exps = 0.30181172939433615 * 2^n , n = 0..8
ETB for Sm: l = 7, exps = 0.7496846647247255 * 2^n , n = 0..3
ETB for Sm: l = 8, exps = 0.9276 * 2^n , n = 0..0

WARN: Even tempered Gaussians are generated as DF auxbasis for  S Sm

  ETB auxbasis for S  [[0, [17975.35470452736, 1]], [0, [8987.67735226368, 1]], [0, [4493.83867613184, 1]], [0, [2246.91933806592, 1]], [0, [1123.45966903296, 1]], [0, [561.72983451648, 1]], [0, [280.86491725824, 1]], [0, [140.43245862912, 1]], [0, [70.21622931456, 1]], [0, [35.10811465728, 1]], [0, [17.55405732864, 1]], [0, [8.77702866432, 1]], [0, [4.38851433216, 1]], [0, [2.19425716608, 1]], [0, [1.09712858304, 1]], [0, [0.54856429152, 1]], [0, [0.27428214576, 1]], [1, [2502.731556363059, 1]], [1, [1251.3657781815295, 1]], [1, [625.6828890907648, 1]], [1, [312.8414445453824, 1]], [1, [156.4207222726912, 1]], [1, [78.2103611363456, 1]], [1, [39.1051805681728, 1]], [1, [19.5525902840864, 1]], [1, [9.7762951420432, 1]], [1, [4.8881475710216, 1]], [1, [2.4440737855108, 1]], [1, [1.2220368927554, 1]], [1, [0.6110184463777, 1]], [1, [0.30550922318885, 1]], [2, [348.45850589184, 1]], [2, [174.22925294592, 1]], [2, [87.11462647296, 1]], [2, [43.55731323648, 1]], [2, [21.77865661824, 1]], [2, [10.88932830912, 1]], [2, [5.44466415456, 1]], [2, [2.72233207728, 1]], [2, [1.36116603864, 1]], [2, [0.68058301932, 1]], [2, [0.34029150966, 1]], [3, [19.578160191423095, 1]], [3, [9.789080095711547, 1]], [3, [4.894540047855774, 1]], [3, [2.447270023927887, 1]], [3, [1.2236350119639434, 1]], [3, [0.6118175059819717, 1]], [4, [1.1, 1]]]
  ETB auxbasis for Sm  [[0, [13872051.868638642, 1]], [0, [6936025.934319321, 1]], [0, [3468012.9671596605, 1]], [0, [1734006.4835798303, 1]], [0, [867003.2417899151, 1]], [0, [433501.62089495757, 1]], [0, [216750.81044747878, 1]], [0, [108375.40522373939, 1]], [0, [54187.702611869696, 1]], [0, [27093.851305934848, 1]], [0, [13546.925652967424, 1]], [0, [6773.462826483712, 1]], [0, [3386.731413241856, 1]], [0, [1693.365706620928, 1]], [0, [846.682853310464, 1]], [0, [423.341426655232, 1]], [0, [211.670713327616, 1]], [0, [105.835356663808, 1]], [0, [52.917678331904, 1]], [0, [26.458839165952, 1]], [0, [13.229419582976, 1]], [0, [6.614709791488, 1]], [0, [3.307354895744, 1]], [0, [1.653677447872, 1]], [0, [0.826838723936, 1]], [0, [0.413419361968, 1]], [0, [0.206709680984, 1]], [0, [0.103354840492, 1]], [0, [0.051677420246, 1]], [1, [1310120.711196009, 1]], [1, [655060.3555980045, 1]], [1, [327530.17779900227, 1]], [1, [163765.08889950113, 1]], [1, [81882.54444975057, 1]], [1, [40941.27222487528, 1]], [1, [20470.63611243764, 1]], [1, [10235.31805621882, 1]], [1, [5117.65902810941, 1]], [1, [2558.829514054705, 1]], [1, [1279.4147570273526, 1]], [1, [639.7073785136763, 1]], [1, [319.85368925683815, 1]], [1, [159.92684462841908, 1]], [1, [79.96342231420954, 1]], [1, [39.98171115710477, 1]], [1, [19.990855578552384, 1]], [1, [9.995427789276192, 1]], [1, [4.997713894638096, 1]], [1, [2.498856947319048, 1]], [1, [1.249428473659524, 1]], [1, [0.624714236829762, 1]], [1, [0.312357118414881, 1]], [1, [0.1561785592074405, 1]], [1, [0.07808927960372025, 1]], [2, [149395.00100575373, 1]], [2, [74697.50050287686, 1]], [2, [37348.75025143843, 1]], [2, [18674.375125719216, 1]], [2, [9337.187562859608, 1]], [2, [4668.593781429804, 1]], [2, [2334.296890714902, 1]], [2, [1167.148445357451, 1]], [2, [583.5742226787255, 1]], [2, [291.78711133936275, 1]], [2, [145.89355566968138, 1]], [2, [72.94677783484069, 1]], [2, [36.473388917420344, 1]], [2, [18.236694458710172, 1]], [2, [9.118347229355086, 1]], [2, [4.559173614677543, 1]], [2, [2.2795868073387715, 1]], [2, [1.1397934036693858, 1]], [2, [0.5698967018346929, 1]], [2, [0.28494835091734644, 1]], [2, [0.14247417545867322, 1]], [2, [0.07123708772933661, 1]], [3, [28218.67836426918, 1]], [3, [14109.33918213459, 1]], [3, [7054.669591067295, 1]], [3, [3527.3347955336476, 1]], [3, [1763.6673977668238, 1]], [3, [881.8336988834119, 1]], [3, [440.91684944170595, 1]], [3, [220.45842472085297, 1]], [3, [110.22921236042649, 1]], [3, [55.114606180213244, 1]], [3, [27.557303090106622, 1]], [3, [13.778651545053311, 1]], [3, [6.8893257725266555, 1]], [3, [3.4446628862633277, 1]], [3, [1.7223314431316639, 1]], [3, [0.8611657215658319, 1]], [3, [0.43058286078291597, 1]], [3, [0.21529143039145798, 1]], [3, [0.10764571519572899, 1]], [4, [3217.8176, 1]], [4, [1608.9088, 1]], [4, [804.4544, 1]], [4, [402.2272, 1]], [4, [201.1136, 1]], [4, [100.5568, 1]], [4, [50.2784, 1]], [4, [25.1392, 1]], [4, [12.5696, 1]], [4, [6.2848, 1]], [4, [3.1424, 1]], [4, [1.5712, 1]], [4, [0.7856, 1]], [4, [0.3928, 1]], [4, [0.1964, 1]], [4, [0.0982, 1]], [5, [249.77786994916565, 1]], [5, [124.88893497458282, 1]], [5, [62.44446748729141, 1]], [5, [31.222233743645706, 1]], [5, [15.611116871822853, 1]], [5, [7.8055584359114265, 1]], [5, [3.9027792179557133, 1]], [5, [1.9513896089778566, 1]], [5, [0.9756948044889283, 1]], [5, [0.48784740224446416, 1]], [5, [0.24392370112223208, 1]], [6, [77.26380272495005, 1]], [6, [38.63190136247503, 1]], [6, [19.315950681237513, 1]], [6, [9.657975340618757, 1]], [6, [4.828987670309378, 1]], [6, [2.414493835154689, 1]], [6, [1.2072469175773446, 1]], [6, [0.6036234587886723, 1]], [6, [0.30181172939433615, 1]], [7, [5.997477317797804, 1]], [7, [2.998738658898902, 1]], [7, [1.499369329449451, 1]], [7, [0.7496846647247255, 1]], [8, [0.9276, 1]]]
num shells = 185, num cGTOs = 971
NQ =  971
The chunk size:  4  k-point pair
Integrals have been computed and stored into df_hf_int/meta.h5
ETB for S: l = 0, exps = 0.27428214576 * 2^n , n = 0..16
ETB for S: l = 1, exps = 0.30550922318885 * 2^n , n = 0..13
ETB for S: l = 2, exps = 0.34029150966 * 2^n , n = 0..10
ETB for S: l = 3, exps = 0.6118175059819717 * 2^n , n = 0..5
ETB for S: l = 4, exps = 1.1 * 2^n , n = 0..0
ETB for Sm: l = 0, exps = 0.051677420246 * 2^n , n = 0..28
ETB for Sm: l = 1, exps = 0.07808927960372025 * 2^n , n = 0..24
ETB for Sm: l = 2, exps = 0.07123708772933661 * 2^n , n = 0..21
ETB for Sm: l = 3, exps = 0.10764571519572899 * 2^n , n = 0..18
ETB for Sm: l = 4, exps = 0.0982 * 2^n , n = 0..15
ETB for Sm: l = 5, exps = 0.24392370112223208 * 2^n , n = 0..10
ETB for Sm: l = 6, exps = 0.30181172939433615 * 2^n , n = 0..8
ETB for Sm: l = 7, exps = 0.7496846647247255 * 2^n , n = 0..3
ETB for Sm: l = 8, exps = 0.9276 * 2^n , n = 0..0

WARN: Even tempered Gaussians are generated as DF auxbasis for  S Sm

  ETB auxbasis for S  [[0, [17975.35470452736, 1]], [0, [8987.67735226368, 1]], [0, [4493.83867613184, 1]], [0, [2246.91933806592, 1]], [0, [1123.45966903296, 1]], [0, [561.72983451648, 1]], [0, [280.86491725824, 1]], [0, [140.43245862912, 1]], [0, [70.21622931456, 1]], [0, [35.10811465728, 1]], [0, [17.55405732864, 1]], [0, [8.77702866432, 1]], [0, [4.38851433216, 1]], [0, [2.19425716608, 1]], [0, [1.09712858304, 1]], [0, [0.54856429152, 1]], [0, [0.27428214576, 1]], [1, [2502.731556363059, 1]], [1, [1251.3657781815295, 1]], [1, [625.6828890907648, 1]], [1, [312.8414445453824, 1]], [1, [156.4207222726912, 1]], [1, [78.2103611363456, 1]], [1, [39.1051805681728, 1]], [1, [19.5525902840864, 1]], [1, [9.7762951420432, 1]], [1, [4.8881475710216, 1]], [1, [2.4440737855108, 1]], [1, [1.2220368927554, 1]], [1, [0.6110184463777, 1]], [1, [0.30550922318885, 1]], [2, [348.45850589184, 1]], [2, [174.22925294592, 1]], [2, [87.11462647296, 1]], [2, [43.55731323648, 1]], [2, [21.77865661824, 1]], [2, [10.88932830912, 1]], [2, [5.44466415456, 1]], [2, [2.72233207728, 1]], [2, [1.36116603864, 1]], [2, [0.68058301932, 1]], [2, [0.34029150966, 1]], [3, [19.578160191423095, 1]], [3, [9.789080095711547, 1]], [3, [4.894540047855774, 1]], [3, [2.447270023927887, 1]], [3, [1.2236350119639434, 1]], [3, [0.6118175059819717, 1]], [4, [1.1, 1]]]
  ETB auxbasis for Sm  [[0, [13872051.868638642, 1]], [0, [6936025.934319321, 1]], [0, [3468012.9671596605, 1]], [0, [1734006.4835798303, 1]], [0, [867003.2417899151, 1]], [0, [433501.62089495757, 1]], [0, [216750.81044747878, 1]], [0, [108375.40522373939, 1]], [0, [54187.702611869696, 1]], [0, [27093.851305934848, 1]], [0, [13546.925652967424, 1]], [0, [6773.462826483712, 1]], [0, [3386.731413241856, 1]], [0, [1693.365706620928, 1]], [0, [846.682853310464, 1]], [0, [423.341426655232, 1]], [0, [211.670713327616, 1]], [0, [105.835356663808, 1]], [0, [52.917678331904, 1]], [0, [26.458839165952, 1]], [0, [13.229419582976, 1]], [0, [6.614709791488, 1]], [0, [3.307354895744, 1]], [0, [1.653677447872, 1]], [0, [0.826838723936, 1]], [0, [0.413419361968, 1]], [0, [0.206709680984, 1]], [0, [0.103354840492, 1]], [0, [0.051677420246, 1]], [1, [1310120.711196009, 1]], [1, [655060.3555980045, 1]], [1, [327530.17779900227, 1]], [1, [163765.08889950113, 1]], [1, [81882.54444975057, 1]], [1, [40941.27222487528, 1]], [1, [20470.63611243764, 1]], [1, [10235.31805621882, 1]], [1, [5117.65902810941, 1]], [1, [2558.829514054705, 1]], [1, [1279.4147570273526, 1]], [1, [639.7073785136763, 1]], [1, [319.85368925683815, 1]], [1, [159.92684462841908, 1]], [1, [79.96342231420954, 1]], [1, [39.98171115710477, 1]], [1, [19.990855578552384, 1]], [1, [9.995427789276192, 1]], [1, [4.997713894638096, 1]], [1, [2.498856947319048, 1]], [1, [1.249428473659524, 1]], [1, [0.624714236829762, 1]], [1, [0.312357118414881, 1]], [1, [0.1561785592074405, 1]], [1, [0.07808927960372025, 1]], [2, [149395.00100575373, 1]], [2, [74697.50050287686, 1]], [2, [37348.75025143843, 1]], [2, [18674.375125719216, 1]], [2, [9337.187562859608, 1]], [2, [4668.593781429804, 1]], [2, [2334.296890714902, 1]], [2, [1167.148445357451, 1]], [2, [583.5742226787255, 1]], [2, [291.78711133936275, 1]], [2, [145.89355566968138, 1]], [2, [72.94677783484069, 1]], [2, [36.473388917420344, 1]], [2, [18.236694458710172, 1]], [2, [9.118347229355086, 1]], [2, [4.559173614677543, 1]], [2, [2.2795868073387715, 1]], [2, [1.1397934036693858, 1]], [2, [0.5698967018346929, 1]], [2, [0.28494835091734644, 1]], [2, [0.14247417545867322, 1]], [2, [0.07123708772933661, 1]], [3, [28218.67836426918, 1]], [3, [14109.33918213459, 1]], [3, [7054.669591067295, 1]], [3, [3527.3347955336476, 1]], [3, [1763.6673977668238, 1]], [3, [881.8336988834119, 1]], [3, [440.91684944170595, 1]], [3, [220.45842472085297, 1]], [3, [110.22921236042649, 1]], [3, [55.114606180213244, 1]], [3, [27.557303090106622, 1]], [3, [13.778651545053311, 1]], [3, [6.8893257725266555, 1]], [3, [3.4446628862633277, 1]], [3, [1.7223314431316639, 1]], [3, [0.8611657215658319, 1]], [3, [0.43058286078291597, 1]], [3, [0.21529143039145798, 1]], [3, [0.10764571519572899, 1]], [4, [3217.8176, 1]], [4, [1608.9088, 1]], [4, [804.4544, 1]], [4, [402.2272, 1]], [4, [201.1136, 1]], [4, [100.5568, 1]], [4, [50.2784, 1]], [4, [25.1392, 1]], [4, [12.5696, 1]], [4, [6.2848, 1]], [4, [3.1424, 1]], [4, [1.5712, 1]], [4, [0.7856, 1]], [4, [0.3928, 1]], [4, [0.1964, 1]], [4, [0.0982, 1]], [5, [249.77786994916565, 1]], [5, [124.88893497458282, 1]], [5, [62.44446748729141, 1]], [5, [31.222233743645706, 1]], [5, [15.611116871822853, 1]], [5, [7.8055584359114265, 1]], [5, [3.9027792179557133, 1]], [5, [1.9513896089778566, 1]], [5, [0.9756948044889283, 1]], [5, [0.48784740224446416, 1]], [5, [0.24392370112223208, 1]], [6, [77.26380272495005, 1]], [6, [38.63190136247503, 1]], [6, [19.315950681237513, 1]], [6, [9.657975340618757, 1]], [6, [4.828987670309378, 1]], [6, [2.414493835154689, 1]], [6, [1.2072469175773446, 1]], [6, [0.6036234587886723, 1]], [6, [0.30181172939433615, 1]], [7, [5.997477317797804, 1]], [7, [2.998738658898902, 1]], [7, [1.499369329449451, 1]], [7, [0.7496846647247255, 1]], [8, [0.9276, 1]]]
num shells = 185, num cGTOs = 971
Drop 0 primitive fitting functions
make aux basis, num shells = 185, num cGTOs = 971
auxcell.rcut 23.493295167201236
make compensating basis, num shells = 14, num cGTOs = 106
chgcell.rcut 11.482117703874595
End Date
Wed Feb 18 13:57:43 EST 2026
